<?xml version="1.0"?>
<VTKFile type="UnstructuredGrid"  version="0.1"  >
<UnstructuredGrid>
<Piece  NumberOfPoints="10957" NumberOfCells="41672">
<Points>
<DataArray  type="Float64"  NumberOfComponents="3"  format="ascii">0.9925137449997291 -0.03728888383758438 0  0.007586802157453682 0.1349677647109762 0  0.007586802157453682 0.1349677647109762 2.95  0.9925137450519488 -0.03728888386417941 2.95  0.9643989096501694 -0.02716704134803519 0  0.9360617343536817 -0.01768327665856045 0  0.9076023198175265 -0.00857299075128265 0  0.8790871331840997 0.0003614069448361137 0  0.8505080400473725 0.009090242106019955 0  0.8218484917797876 0.0175509659925942 0  0.7931649761035906 0.02592935040050181 0  0.764418986146959 0.03409177790458878 0  0.7355999411752842 0.04199208040343261 0  0.706731175369029 0.04970752442632946 0  0.6778150466362781 0.05724422177386088 0  0.6488235004287045 0.06448534614328195 0  0.6197762269986674 0.07150054499793095 0  0.5906691301945188 0.07826269316251469 0  0.5614959755933637 0.08473383882735666 0  0.5322596382677409 0.09091321471851833 0  0.5029835339452652 0.09690037660788667 0  0.4736699718296479 0.1027023189330479 0  0.4443098233029065 0.1082645407993157 0  0.4149010073711484 0.1135628320994786 0  0.3854783433069935 0.1187834305436249 0  0.3560099120866912 0.1237401372022409 0  0.3265194297032009 0.1285612560788899 0  0.2969990933156311 0.1331978653889243 0  0.2674324755030887 0.1375295585331712 0  0.2378244583146815 0.1415687425006859 0  0.2081641615162468 0.1452020213412918 0  0.178471661952439 0.1485620625312685 0  0.1487339230235372 0.1514955168237853 0  0.1189428323115893 0.1538263087404927 0  0.08910021994414483 0.1553171437333857 0  0.05922253747548557 0.1554056076484339 0  0.02955586583595391 0.1522076925616009 0  0.007586802157453682 0.1349677647109762 0.02979797979797998  0.007586802157453682 0.1349677647109762 0.05959595959595964  0.007586802157453682 0.1349677647109762 0.08939393939393964  0.007586802157453682 0.1349677647109762 0.1191919191919193  0.007586802157453682 0.1349677647109762 0.1489898989898993  0.007586802157453682 0.1349677647109762 0.1787878787878789  0.007586802157453682 0.1349677647109762 0.2085858585858589  0.007586802157453682 0.1349677647109762 0.2383838383838386  0.007586802157453682 0.1349677647109762 0.2681818181818186  0.007586802157453682 0.1349677647109762 0.2979797979797985  0.007586802157453682 0.1349677647109762 0.3277777777777782  0.007586802157453682 0.1349677647109762 0.3575757575757582  0.007586802157453682 0.1349677647109762 0.3873737373737379  0.007586802157453682 0.1349677647109762 0.4171717171717177  0.007586802157453682 0.1349677647109762 0.4469696969696978  0.007586802157453682 0.1349677647109762 0.4767676767676775  0.007586802157453682 0.1349677647109762 0.5065656565656572  0.007586802157453682 0.1349677647109762 0.5363636363636372  0.007586802157453682 0.1349677647109762 0.5661616161616171  0.007586802157453682 0.1349677647109762 0.5959595959595968  0.007586802157453682 0.1349677647109762 0.6257575757575764  0.007586802157453682 0.1349677647109762 0.6555555555555564  0.007586802157453682 0.1349677647109762 0.685353535353536  0.007586802157453682 0.1349677647109762 0.7151515151515156  0.007586802157453682 0.1349677647109762 0.7449494949494957  0.007586802157453682 0.1349677647109762 0.7747474747474754  0.007586802157453682 0.1349677647109762 0.8045454545454551  0.007586802157453682 0.1349677647109762 0.8343434343434349  0.007586802157453682 0.1349677647109762 0.864141414141415  0.007586802157453682 0.1349677647109762 0.8939393939393944  0.007586802157453682 0.1349677647109762 0.9237373737373743  0.007586802157453682 0.1349677647109762 0.9535353535353542  0.007586802157453682 0.1349677647109762 0.9833333333333343  0.007586802157453682 0.1349677647109762 1.013131313131314  0.007586802157453682 0.1349677647109762 1.042929292929294  0.007586802157453682 0.1349677647109762 1.072727272727274  0.007586802157453682 0.1349677647109762 1.102525252525254  0.007586802157453682 0.1349677647109762 1.132323232323233  0.007586802157453682 0.1349677647109762 1.162121212121214  0.007586802157453682 0.1349677647109762 1.191919191919194  0.007586802157453682 0.1349677647109762 1.221717171717173  0.007586802157453682 0.1349677647109762 1.251515151515154  0.007586802157453682 0.1349677647109762 1.281313131313133  0.007586802157453682 0.1349677647109762 1.311111111111113  0.007586802157453682 0.1349677647109762 1.340909090909093  0.007586802157453682 0.1349677647109762 1.370707070707073  0.007586802157453682 0.1349677647109762 1.400505050505053  0.007586802157453682 0.1349677647109762 1.430303030303033  0.007586802157453682 0.1349677647109762 1.460101010101013  0.007586802157453682 0.1349677647109762 1.489898989898993  0.007586802157453682 0.1349677647109762 1.519696969696973  0.007586802157453682 0.1349677647109762 1.549494949494953  0.007586802157453682 0.1349677647109762 1.579292929292933  0.007586802157453682 0.1349677647109762 1.609090909090912  0.007586802157453682 0.1349677647109762 1.638888888888892  0.007586802157453682 0.1349677647109762 1.668686868686872  0.007586802157453682 0.1349677647109762 1.698484848484852  0.007586802157453682 0.1349677647109762 1.728282828282832  0.007586802157453682 0.1349677647109762 1.758080808080812  0.007586802157453682 0.1349677647109762 1.787878787878792  0.007586802157453682 0.1349677647109762 1.817676767676772  0.007586802157453682 0.1349677647109762 1.847474747474752  0.007586802157453682 0.1349677647109762 1.877272727272732  0.007586802157453682 0.1349677647109762 1.907070707070711  0.007586802157453682 0.1349677647109762 1.936868686868692  0.007586802157453682 0.1349677647109762 1.966666666666672  0.007586802157453682 0.1349677647109762 1.996464646464651  0.007586802157453682 0.1349677647109762 2.02626262626263  0.007586802157453682 0.1349677647109762 2.05606060606061  0.007586802157453682 0.1349677647109762 2.08585858585859  0.007586802157453682 0.1349677647109762 2.115656565656569  0.007586802157453682 0.1349677647109762 2.145454545454549  0.007586802157453682 0.1349677647109762 2.175252525252528  0.007586802157453682 0.1349677647109762 2.205050505050509  0.007586802157453682 0.1349677647109762 2.234848484848488  0.007586802157453682 0.1349677647109762 2.264646464646468  0.007586802157453682 0.1349677647109762 2.294444444444448  0.007586802157453682 0.1349677647109762 2.324242424242427  0.007586802157453682 0.1349677647109762 2.354040404040407  0.007586802157453682 0.1349677647109762 2.383838383838387  0.007586802157453682 0.1349677647109762 2.413636363636366  0.007586802157453682 0.1349677647109762 2.443434343434345  0.007586802157453682 0.1349677647109762 2.473232323232325  0.007586802157453682 0.1349677647109762 2.503030303030305  0.007586802157453682 0.1349677647109762 2.532828282828285  0.007586802157453682 0.1349677647109762 2.562626262626264  0.007586802157453682 0.1349677647109762 2.592424242424244  0.007586802157453682 0.1349677647109762 2.622222222222224  0.007586802157453682 0.1349677647109762 2.652020202020203  0.007586802157453682 0.1349677647109762 2.681818181818182  0.007586802157453682 0.1349677647109762 2.711616161616162  0.007586802157453682 0.1349677647109762 2.741414141414142  0.007586802157453682 0.1349677647109762 2.771212121212121  0.007586802157453682 0.1349677647109762 2.801010101010102  0.007586802157453682 0.1349677647109762 2.830808080808081  0.007586802157453682 0.1349677647109762 2.860606060606061  0.007586802157453682 0.1349677647109762 2.89040404040404  0.007586802157453682 0.1349677647109762 2.92020202020202  0.02955586665970645 0.152207692743969 2.95  0.0592225391622407 0.1554056076997827 2.95  0.08910022247431289 0.1553171436543912 2.95  0.1189428356790401 0.1538263085106716 2.95  0.1487339272258054 0.1514955164485778 2.95  0.1784716669857977 0.1485620619846548 2.95  0.2081641673828153 0.1452020206530984 2.95  0.2378244650101828 0.1415687416400932 2.95  0.2674324830262811 0.1375295574952611 2.95  0.2969991016635551 0.1331978641562543 2.95  0.3265194388709149 0.1285612546257254 2.95  0.3560099220724205 0.1237401355215495 2.95  0.3854783541254482 0.1187834287283932 2.95  0.4149010190000992 0.113562830018489 2.95  0.4443098357391194 0.1082645384431056 2.95  0.4736699850933383 0.1027023164111393 2.95  0.5029835480169053 0.09690037382073331 2.95  0.5322596531280808 0.09091321157617849 2.95  0.5614959912517894 0.08473383538307885 2.95  0.590669146638386 0.07826268936393518 2.95  0.6197762442228643 0.07150054083737761 2.95  0.6488235184809702 0.06448534181312304 2.95  0.677815065462649 0.05724421705657579 2.95  0.7067311949546904 0.04970751927410625 2.95  0.7355999615241583 0.04199207483830233 2.95  0.7644190072646493 0.03409177195406968 2.95  0.7931649980312939 0.02592934421293083 2.95  0.8218485144464328 0.01755095932049689 2.95  0.8505080634672842 0.009090235007654539 2.95  0.8790871574001908 0.0003613995875277054 2.95  0.9076023447508066 -0.008572998642740692 2.95  0.9360617600175944 -0.01768328503285081 2.95  0.9643989359861183 -0.02716705036944823 2.95  0.9925137450002565 -0.037288883837853 0.02979797979797999  0.992513745000784 -0.03728888383812164 0.05959595959595966  0.9925137450013115 -0.03728888383839029 0.08939393939393965  0.992513745001839 -0.03728888383865891 0.1191919191919193  0.9925137450023664 -0.03728888383892755 0.1489898989898993  0.9925137450028939 -0.0372888838391962 0.178787878787879  0.9925137450034214 -0.03728888383946482 0.2085858585858589  0.9925137450039488 -0.03728888383973347 0.2383838383838386  0.9925137450044763 -0.03728888384000211 0.2681818181818186  0.9925137450050038 -0.03728888384027073 0.2979797979797986  0.9925137450055312 -0.03728888384053938 0.3277777777777782  0.9925137450060587 -0.03728888384080802 0.3575757575757582  0.9925137450065862 -0.03728888384107667 0.3873737373737379  0.9925137450071136 -0.03728888384134529 0.4171717171717179  0.9925137450076411 -0.03728888384161392 0.4469696969696979  0.9925137450081686 -0.03728888384188257 0.4
[...]
<PointData  Vectors="Displacement"> 
<DataArray  type="Float64"  Name="Displacement"  NumberOfComponents="3" format="ascii">0.0000000000000000e+00 0.0000000000000000e+00 0.0000000000000000e+00  0.0000000000000000e+00 0.0000000000000000e+00 0.0000000000000000e+00  4.5512609362593522e-04 1.1795611610661999e-03 7.1996577573948879e-05  4.9278609989012617e-04 1.3510373435356873e-03 -9.6175590688206538e-05  0.0000000000000000e+00 0.0000000000000000e+00 0.0000000000000000e+00  0.0000000000000000e+00 0.0000000000000000e+00 0.0000000000000000e+00  0.0000000000000000e+00 0.0000000000000000e+00 0.0000000000000000e+00  0.0000000000000000e+00 0.0000000000000000e+00 0.0000000000000000e+00  0.0000000000000000e+00 0.0000000000000000e+00 0.0000000000000000e+00  0.0000000000000000e+00 0.0000000000000000e+00 0.0000000000000000e+00  0.0000000000000000e+00 0.0000000000000000e+00 0.0000000000000000e+00  0.0000000000000000e+00 0.0000000000000000e+00 0.0000000000000000e+00  0.0000000000000000e+00 0.0000000000000000e+00 0.0000000000000000e+00  0.0000000000000000e+00 0.0000000000000000e+00 0.0000000000000000e+00  0.0000000000000000e+00 0.0000000000000000e+00 0.0000000000000000e+00  0.0000000000000000e+00 0.0000000000000000e+00 0.0000000000000000e+00  0.0000000000000000e+00 0.0000000000000000e+00 0.0000000000000000e+00  0.0000000000000000e+00 0.0000000000000000e+00 0.0000000000000000e+00  0.0000000000000000e+00 0.0000000000000000e+00 0.0000000000000000e+00  0.0000000000000000e+00 0.0000000000000000e+00 0.0000000000000000e+00  0.0000000000000000e+00 0.0000000000000000e+00 0.0000000000000000e+00  0.0000000000000000e+00 0.0000000000000000e+00 0.0000000000000000e+00  0.0000000000000000e+00 0.0000000000000000e+00 0.0000000000000000e+00  0.0000000000000000e+00 0.0000000000000000e+00 0.0000000000000000e+00  0.0000000000000000e+00 0.0000000000000000e+00 0.0000000000000000e+00  0.0000000000000000e+00 0.0000000000000000e+00 0.0000000000000000e+00  0.0000000000000000e+00 0.0000000000000000e+00 0.0000000000000000e+00  0.0000000000000000e+00 0.0000000000000000e+00 0.0000000000000000e+00  0.0000000000000000e+00 0.0000000000000000e+00 0.0000000000000000e+00  0.0000000000000000e+00 0.0000000000000000e+00 0.0000000000000000e+00  0.0000000000000000e+00 0.0000000000000000e+00 0.0000000000000000e+00  0.0000000000000000e+00 0.0000000000000000e+00 0.0000000000000000e+00  0.0000000000000000e+00 0.0000000000000000e+00 0.0000000000000000e+00  0.0000000000000000e+00 0.0000000000000000e+00 0.0000000000000000e+00  0.0000000000000000e+00 0.0000000000000000e+00 0.0000000000000000e+00  0.0000000000000000e+00 0.0000000000000000e+00 0.0000000000000000e+00  0.0000000000000000e+00 0.0000000000000000e+00 0.0000000000000000e+00  -2.3797222510780132e-06 3.2957784706058704e-07 -2.5064877112979790e-06  -4.0575926905381694e-06 6.9228518163523580e-07 -4.0371373341438965e-06  -5.7385914441521884e-06 1.0484844406439857e-06 -5.1775972982619639e-06  -7.4278334244221633e-06 1.5128150812466953e-06 -6.2060189419276124e-06  -9.1161162234422409e-06 2.0839032411347590e-06 -6.7959858500529022e-06  -1.0739995054896600e-05 2.8121569217185972e-06 -7.0508224216073559e-06  -1.2322075937806072e-05 3.6131093636264033e-06 -7.2756851333519767e-06  -1.3860699010436076e-05 4.5083144270500152e-06 -7.2692265607136502e-06  -1.5318882521891054e-05 5.4679172960370558e-06 -7.0487448445895116e-06  -1.6706846397021124e-05 6.4570051427463745e-06 -6.6862381562406230e-06  -1.7995471513307378e-05 7.4686881196233273e-06 -6.1115844194866649e-06  -1.9168766082037339e-05 8.4121675435238698e-06 -5.4469258138680917e-06  -2.0308319000289850e-05 9.1760068492530999e-06 -4.6603943641435752e-06  -2.1317228866462778e-05 9.7718811019050991e-06 -3.8327137770955445e-06  -2.2254471723141632e-05 1.0111570794487470e-05 -2.8469296643900407e-06  -2.3169670548643868e-05 9.9082688043904394e-06 -1.7783153526203487e-06  -2.3968972432097216e-05 9.2243485105060936e-06 -6.3864738144980969e-07  -2.4737684866545820e-05 8.0335872706965002e-06 4.9338051945263965e-07  -2.5478858841774573e-05 6.0850219498418017e-06 1.8278499511083102e-06  -2.6189824694093210e-05 3.4556932835033308e-06 3.1293329485808172e-06  -2.6747037124647381e-05 3.7516701865328276e-07 4.2785052963301425e-06  -2.7537664052481579e-05 -3.5086509524500505e-06 5.7166049415225004e-06  -2.8041523042997573e-05 -7.7698447979022497e-06 7.0807500498992081e-06  -2.8475874392133989e-05 -1.2549854900958164e-05 8.3907662714895566e-06  -2.8871067421769175e-05 -1.7440424832286214e-05 9.7256572623785501e-06  -2.8942281748766047e-05 -2.1836067488934291e-05 1.1191428924563946e-05  -2.8876649235156985e-05 -2.5401497274838602e-05 1.2290465265433420e-05  -2.8459190936164523e-05 -2.8025870207784151e-05 1.3461383897582089e-05  -2.7630081548043178e-05 -2.9024821016890824e-05 1.5145892186612273e-05  -2.6565164862394245e-05 -2.8695548025271670e-05 1.6152967938005959e-05  -2.4812474664275088e-05 -2.5499874893710455e-05 1.7847794822690165e-05  -2.2475744454042290e-05 -1.9830253564659912e-05 1.8770222330895320e-05  -1.9811682889284441e-05 -1.1676261606994578e-05 2.0121565889047691e-05  -1.6332221499367661e-05 -1.4041043597518403e-06 2.1289304759830594e-05  -1.2776640638058957e-05 1.1790129284812496e-05 2.2527688335716797e-05  -8.1473800470335284e-06 2.6893238956589428e-05 2.3357727514923830e-05  -3.7899489797774363e-06 4.3632771352738625e-05 2.4713121886240865e-05  1.6331258127265971e-06 6.1425103365768028e-05 2.6228723073010413e-05  5.9587757261123571e-06 7.8466748843886914e-05 2.7081237200020930e-05  1.0418114630204830e-05 9.4163875374584491e-05 2.7852152432940948e-05  1.5062407486094632e-05 1.0769579519944341e-04 2.8935986087548852e-05  1.9072884510492345e-05 1.1824090948897662e-04 3.0091196653033400e-05  2.2261174807922924e-05 1.2464243269077563e-04 3.1551665931401931e-05  2.4724864671251113e-05 1.2603449045458061e-04 3.4702335415020364e-05  2.7441297619113626e-05 1.2132380715512444e-04 3.5988295991735091e-05  2.8743448215504543e-05 1.1162436740683385e-04 3.7125987235599274e-05  2.9040020282098686e-05 9.7495265359849519e-05 3.7367763800767388e-05  2.8445585131461990e-05 7.6125829442726220e-05 3.8787957840887572e-05  2.6990972661616947e-05 5.0800452007926275e-05 3.9934120828243563e-05  2.5679996957144812e-05 2.2695343256392371e-05 4.1164938760866088e-05  2.3679719820040896e-05 -9.3106537301892400e-06 4.2355742510185061e-05  2.1370556142843997e-05 -4.3130609432147124e-05 4.3537550318602537e-05  1.9435561833163471e-05 -7.6951674009154427e-05 4.4786375206253478e-05  1.7660754908168780e-05 -1.1033720566167305e-04 4.5837460856288944e-05  1.5820873442885053e-05 -1.4210232126095226e-04 4.6829343412952624e-05  1.4871950334249671e-05 -1.7175172221815791e-04 4.7542737773370899e-05  1.4191014592925930e-05 -1.9923022956489964e-04 4.8506141600984078e-05  1.3674271292273443e-05 -2.2605877251581099e-04 4.9598765780018873e-05  1.3201549620281631e-05 -2.5008259512539969e-04 4.9825196344363523e-05  1.3379801355220051e-05 -2.7259636631462908e-04 5.0636606199343612e-05  1.4403430877857803e-05 -2.9356225830185184e-04 5.1442545315419935e-05  1.4608995096634924e-05 -3.1203504700335873e-04 5.1433699615791454e-05  1.5664940576292085e-05 -3.2875658484320976e-04 5.1783071798510864e-05  1.7471497439633517e-05 -3.4220898700273669e-04 5.3435293215661264e-05  1.9778914269937562e-05 -3.5262807801129985e-04 5.4990803032540313e-05  2.2948019009194661e-05 -3.5902642908106579e-04 5.5927284952943892e-05  2.7107473413687419e-05 -3.6167057808772198e-04 5.7178286360617395e-05  3.1682349411330252e-05 -3.5914134325055683e-04 5.7512400426127858e-05  3.7219103134630133e-05 -3.5109387503079719e-04 5.8515984177560572e-05  4.3878879529093771e-05 -3.3889337796330610e-04 5.9425447543363901e-05  5.1087255097368719e-05 -3.2274842486018656e-04 6.0494545150356227e-05  5.9717618667061290e-05 -3.0226757050271316e-04 6.0523062634932542e-05  6.8745375223332799e-05 -2.7795205909776741e-04 5.9700579926848528e-05  7.7789744897228274e-05 -2.5014762082258967e-04 6.1242021266512227e-05  8.7915599917275431e-05 -2.1864039242082181e-04 6.2103619979225562e-05  9.8952187048027021e-05 -1.8591864433984638e-04 6.2601524240223815e-05  1.0949374694098244e-04 -1.5062878262223171e-04 6.2986795221053920e-05  1.2129162030333592e-04 -1.1287504234557872e-04 6.4276908041131266e-05  1.3363467521821496e-04 -7.0330358417182421e-05 6.4253554939932883e-05  1.4614266197878173e-04 -2.5476590267028826e-05 6.5263473761890641e-05  1.5915686640708711e-04 2.1819288580189173e-05 6.5857068982026190e-05  1.7339774139167041e-04 7.2894398280350686e-05 6.5141491919490187e-05  1.8768956317601285e-04 1.2703459470272908e-04 6.5555240956185077e-05  2.0189596322554187e-04 1.8361643931692236e-04 6.6419336099651937e-05  2.1702521387860661e-04 2.4182429455322786e-04 6.6713863390552910e-05  2.3272998279747482e-04 3.0193636367652357e-04 6.6651623645366085e-05  2.4808348457143790e-04 3.6334232962695253e-04 6.7434790177745168e-05  2.6420996114382453e-04 4.2588017469069969e-04 6.7173678210104331e-05  2.8019264512391389e-04 4.8972933167313812e-04 6.7470044473323884e-05  2.9665849242434793e-04 5.5527031353880827e-04 6.7776051258830727e-05  3.1299707082259613e-04 6.2200502673784221e-04 6.8285437065544686e-05  3.2986208600849535e-04 6.8998143860045781e-04 6.8591650350728994e-05  3.4690856923538907e-04 7.5807193371234423e-04 6.8779217767463350e-05  3.6366227948551953e-04 8.2700529013510172e-04 6.9349813052900427e-05  3.8127344626134960e-04 8.9657983903612844e-04 6.9771832899459993e-05  3.9870183146425352e-04 9.6692345527218666e-04 7.0428140101298575e-05  4.1700361256288149e-04 1.0376348870863414e-03 7.0996924505333599e-05  4.3569875514572838e-04 1.1088295154457631e-03 7.1826605438516663e-05  4.5472710590653613e-04 1.1810234063655931e-03 1.8377967005154174e-05  4.5346279333959353e-04 1.1828261892119474e-03 -7.4789855213525929e-06  4.5172551069269103e-04 1.1843734507047839e-03 -2.4013947237374803e-05  4.5045182818077774e-04 1.1857068365735033e-03 -3.7134662370561740e-05  4.4980994888534759e-04 1.1880937035061709e-03 -4.7971750256020381e-05  4.4924893111891490e-04 1.1904474945077757e-03 -5.7714795291768533e-05  4.4894238871530021e-04 1.1929552433617937e-03 -6.5941873715895570e-05  4.4871804957590596e-04 1.1955397823646982e-03 -7.3710681250590889e-05  4.4818941721589382e-04 1.1983809409025230e-03 -8.0180860028179215e-05  4.4778443672877625e-04 1.2011427394019827e-03 -8.6003367892888689e-05  4.4770497631592052e-04 1.2044289301677263e-03 -9.1201235441357216e-05  4.4743280858816365e-04 1.2078515877246409e-03 -9.5988397117047948e-05  4.4719648069244339e-04 1.2116870155582944e-03 -1.0024861141445337e-04  4.4727822247407639e-04 1.2159314905424356e-03 -1.0394404468971136e-04  4.4751125912066014e-04 1.2203088008840559e-03 -1.0744905697920336e-04  4.4807105734910916e-04 1.2253474424659778e-03 -1.1052650899273387e-04  4.4844440979411871e-04 1.2301555481674293e-03 -1.1287663100327095e-04  4.4957935992899305e-04 1.2359422889541155e-03 -1.1528789360552872e-04  4.5017133507267975e-04 1.2415758131855861e-03 -1.1707215740660584e-04  4.5152997473528754e-04 1.2480112700338792e-03 -1.1869803844438531e-04  4.5283523965479109e-04 1.2546640991486192e-03 -1.1984085487933103e-04  4.5450759918790599e-04 1.2617728990281056e-03 -1.2045322420059881e-04  4.5619595708806208e-04 1.2690770387080224e-03 -1.2090666960560136e-04  4.5823556921311542e-04 1.2767185005741904e-03 -1.2059977490498285e-04  4.6056500624781728e-04 1.2844954987654754e-03 -1.2013844285427699e-04  4.6305890516828659e-04 1.2920084541200563e-03 -1.1925186249585914e-04  4.6569499186644114e-04 1.2991675523771262e-03 -1.1759220961177415e-04  4.6845687762340192e-04 1.3064172705780012e-03 -1.1518143289553773e-04  4.7148063048111689e-04 1.3136562107321191e-03 -1.1279861766979185e-04  4.7458354725932915e-04 1.3210247422423928e-03 -1.1001872042868661e-04  4.7919245822866793e-04 1.3291842324267453e-03 -1.0696826512246249e-04  4.8422689853246255e-04 1.3373802292562696e-03 -1.0388885399958365e-04  4.9151963744603481e-04 1.3471220744007400e-03 -1.0092987309911034e-04  -3.6324981534092032e-06 5.1482085280863681e-07 3.4561174725681762e-06  -5.3543457227335942e-06 2.3185028109533251e-07 5.2739061263879555e-06  -7.2595873051478411e-06 6.3347491108210007e-08 6.9235568476359430e-06  -8.8410264575876082e-06 -2.8003535906669343e-07 7.8427621280558165e-06  -1.0372308155516803e-05 -6.3103584918979636e-07 8.7082160801760370e-06  -1.1840818548925747e-05 -8.5627700083515697e-07 9.1835581982277085e-06  -1.3267899607864798e-05 -1.0275202802644337e-06 9.4304473984691747e-06  -1.4611968609133550e-05 -1.0556852919817383e-06 9.3937822079677090e-06  -1.5840137717590547e-05 -8.1082398990230981e-07 9.1189720346882306e-06  -1.6983169983604009e-05 -2.3575464586428353e-07 8.5245830493897337e-06  -1.7960690836936181e-05 4.2740963014147565e-07 7.8404753811991553e-06  -1.8921972535675324e-05 1.2702493319094485e-06 7.0589983576936814e-06  -1.9790722360865004e-05 2.3402977094774542e-06 6.2137740471485324e-06  -2.0429320602544459e-05 3.6967546352517231e-06 5.0685757986065338e-06  -2.0614096919804924e-05 5.9296522621977068e-06 3.5527772927895854e-06  -2.0816393711304635e-05 8.0303450928777621e-06 2.0168815857658119e-06  -2.0977591086047088e-05 1.0125227635634371e-05 4.4141157141481645e-07  -2.0886365445383017e-05 1.2332656847060660e-05 -1.4553983014665770e-06  -2.0874262157852342e-05 1.3866143896889063e-05 -3.1897564402946962e-06  -2.0744306833276052e-05 1.4997340569955491e-05 -5.3003534279861308e-06  -2.0414253076341240e-05 1.5721905233729607e-05 -7.4615612331256109e-06  -2.0154429860942933e-05 1.6249516588222438e-05 -9.4433693248991875e-06  -1.9753867082882520e-05 1.6213293259649934e-05 -1.1659516212780493e-05  -1.9457146620869763e-05 1.4648686887404692e-05 -1.4181051003622475e-05  -1.9700488954337354e-05 1.0091763017898058e-05 -1.6551610234440790e-05  -2.0618371340692277e-05 3.0407954190607693e-06 -1.8763119733480471e-05  -2.1576728024340674e-05 -6.0148111599938720e-06 -2.1066655147001192e-05  -2.2967048989174129e-05 -1.6203310138068361e-05 -2.3133872926651763e-05  -2.3882364975148918e-05 -2.6525393967879513e-05 -2.4658217700221887e-05  -2.4701120318555025e-05 -3.7165131696002188e-05 -2.6068586808741320e-05  -2.5605778280046919e-05 -4.8265950625012240e-05 -2.7433952167865231e-05  -2.6531775415579410e-05 -5.9039693168797340e-05 -2.8449065457553228e-05  -2.7902910233286539e-05 -6.9321636836235868e-05 -2.8796280914713244e-05  -2.8192829908911989e-05 -7.7222308498609132e-05 -2.9740061401254107e-05  -2.8783620136168137e-05 -8.3241322024358620e-05 -2.9685970934746571e-05  -2.7943536060792269e-05 -8.6327930894845734e-05 -3.0356679868389049e-05  -2.6479295986249309e-05 -7.9177777444586022e-05 -2.9999397413414889e-05  -1.9793052027194725e-05 -5.6688673738514763e-05 -3.0121511390034948e-05  -1.2573518960141138e-05 -2.9797850178405923e-05 -3.0584397343180647e-05  -4.5726405472012812e-06 7.7747281228156341e-07 -3.1180507267266694e-05  3.8838706579768568e-06 3.5643650082025148e-05 -3.1092781984942003e-05  1.4513458605312603e-05 7.8081124962537862e-05 -3.1235153227649429e-05  2.7214791231916606e-05 1.2883646436758403e-04 -3.3908435566282953e-05  3.9336121131094945e-05 1.7711642749483752e-04 -3.8009995520114283e-05  4.9512546781765525e-05 2.1543012231118249e-04 -4.3341542278559456e-05  5.8704868142361946e-05 2.4494112013890743e-04 -4.8516748954323535e-05  6.5669462580368918e-05 2.6570030828187443e-04 -5.0764372330534341e-05  6.8240540371572017e-05 2.7104248110820930e-04 -5.8087291605822850e-05  7.1861643418748235e-05 2.6864117638259003e-04 -6.8166767465412359e-05  7.4274355049363364e-05 2.4404033554878361e-04 -7.5664396692560730e-05  6.9047063449815827e-05 1.9908887109063074e-04 -8.1729942892621527e-05  6.3776397219050601e-05 1.4709028445551779e-04 -8.2847365000294828e-05  5.0363091244749961e-05 6.5695555561924400e-05 -8.8668737790255876e-05  3.4099354881321554e-05 -3.0378794053953080e-05 -9.3113657958678698e-05  2.1305972511688554e-05 -1.2084191608169954e-04 -9.3729001796735337e-05  8.5836006356472782e-06 -2.1097586671143588e-04 -9.3701683418895114e-05  -4.1829818664078037e-06 -2.9332771190715846e-04 -9.1558235878739277e-05  -1.0991690496817020e-05 -3.5239715972272708e-04 -8.7727091778889930e-05  -1.5461239296446197e-05 -3.9890936027155892e-04 -8.5509730765797982e-05  -2.0461754785928552e-05 -4.3876646114517754e-04 -8.3356263127900944e-05  -2.0906793035672412e-05 -4.5604489784412789e-04 -7.7278707892128136e-05  -7.6610413167331176e-06 -4.2828570308557314e-04 -7.1371116551626753e-05  5.5979965787303555e-06 -3.8766790280565382e-04 -7.0664920093941900e-05  1.8351769952299574e-05 -3.4611117822997626e-04 -7.0905109814597533e-05  3.1249025242858793e-05 -3.0266462594055147e-04 -7.1782198982131836e-05  4.3683757447301232e-05 -2.6601543916631468e-04 -7.3206312505602440e-05  5.1169079456652003e-05 -2.4396297600923369e-04 -7.6051119548872003e-05  5.9155524809949322e-05 -2.2367907942058606e-04 -7.8790984468496411e-05  6.3482880776900917e-05 -2.1857536164573063e-04 -8.0733691635141724e-05  6.5655056125472102e-05 -2.2329934496672540e-04 -8.1865897799942073e-05  6.7476928541710619e-05 -2.2726456995014919e-04 -8.2625762714113400e-05  6.9857445105423621e-05 -2.3001667262514589e-04 -8.3208413760839942e-05  7.5936550451669095e-05 -2.1833882950128095e-04 -8.2551260480175572e-05  8.1505177684298196e-05 -2.0403653990062632e-04 -8.2364106270628541e-05  9.2736400457783133e-05 -1.6843946054649725e-04 -7.9897635130468940e-05  1.1219376792497934e-04 -9.6057692126299163e-05 -7.9026726714360020e-05  1.3225431182721360e-04 -1.7428390925005196e-05 -7.8962497756134142e-05  1.5109147194440238e-04 5.2043144675044490e-05 -7.8998414726907322e-05  1.6889134773914339e-04 1.1698629487712280e-04 -8.0026284854373361e-05  1.8125605371148025e-04 1.6601952577927008e-04 -8.2445982134963540e-05  1.9115402215130793e-04 2.0116869605405478e-04 -8.3563259881782556e-05  2.0110122473131320e-04 2.3643654684543043e-04 -8.4604873936011332e-05  2.1176757405730594e-04 2.7675101818526340e-04 -8.5042666569913201e-05  2.2543793879643167e-04 3.2842948768634767e-04 -8.3317529236721520e-05  2.4225060539102941e-04 3.9391388797840594e-04 -8.2938050682573492e-05  2.5885743310992106e-04 4.6012526399058772e-04 -8.3086651450950242e-05  2.7560074727215982e-04 5.2541574292257740e-04 -8.3270834299094674e-05  2.9119964174731730e-04 5.8829779210084606e-04 -8.4138610234185719e-05  3.0637026886562029e-04 6.4821250127061270e-04 -8.5278408837396167e-05  3.2025605048583957e-04 7.0447414664279553e-04 -8.5468499500213939e-05  3.3601523527425163e-04 7.6644121664820185e-04 -8.6185942011983815e-05  3.5242231282939192e-04 8.3308202445149006e-04 -8.6050590162500593e-05  3.6978066082055258e-04 9.0229105795526651e-04 -8.6506654694251504e-05  3.8701928059193120e-04 9.7170745062452580e-04 -8.7326256268477085e-05  4.0494879745408039e-04 1.0425594744006333e-03 -8.8570863852663909e-05  4.2402772136404814e-04 1.1161335642733718e-03 -9.0313177407449490e-05  4.4442134287728182e-04 1.1934502939881431e-03 -9.2287519366761572e-05  4.6638629007283793e-04 1.2702144894491895e-03 -9.4387480707071970e-05  0.0000000000000000e+00 0.0000000000000000e+00 0.0000000000000000e+00  0.0000000000000000e+00 0.0000000000000000e+00 0.0000000000000000e+00  0.0000000000000000e+00 0.0000000000000000e+00 0.0000000000000000e+00  0.0000000000000000e+00 0.0000000000000000e+00 0.0000000000000000e+00  0.0000000000000000e+00 0.0000000000000000e+00 0.0000000000000000e+00  0.0000000000000000e+00 0.0000000000000000e+00 0.0000000000000000e+00  0.0000000000000000e+00 0.0000000000000000e+00 0.0000000000000000e+00  0.0000000000000000e+00 0.0000000000000000e+00 0.0000000000000000e+00  0.0000000000000000e+00 0.0000000000000000e+00 0.0000000000000000e+00  0.0000000000000000e+00 0.0000000000000000e+00 0.0000000000000000e+00  0.0000000000000000e+00 0.0000000000000000e+00 0.0000000000000000e+00  0.0000000000000000e+00 0.0000000000000000e+00 0.0000000000000000e+00  0.0000000000000000e+00 0.0000000000000000e+00 0.0000000000000000e+00  0.0000000000000000e+00 0.0000000000000000e+00