<?xml version="1.0"?>
<VTKFile type="UnstructuredGrid"  version="0.1"  >
<UnstructuredGrid>
<Piece  NumberOfPoints="10957" NumberOfCells="41672">
<Points>
<DataArray  type="Float64"  NumberOfComponents="3"  format="ascii">0.9925137449997291 -0.03728888383758438 0  0.007586802157453682 0.1349677647109762 0  0.007586802157453682 0.1349677647109762 2.95  0.9925137450519488 -0.03728888386417941 2.95  0.9643989096501694 -0.02716704134803519 0  0.9360617343536817 -0.01768327665856045 0  0.9076023198175265 -0.00857299075128265 0  0.8790871331840997 0.0003614069448361137 0  0.8505080400473725 0.009090242106019955 0  0.8218484917797876 0.0175509659925942 0  0.7931649761035906 0.02592935040050181 0  0.764418986146959 0.03409177790458878 0  0.7355999411752842 0.04199208040343261 0  0.706731175369029 0.04970752442632946 0  0.6778150466362781 0.05724422177386088 0  0.6488235004287045 0.06448534614328195 0  0.6197762269986674 0.07150054499793095 0  0.5906691301945188 0.07826269316251469 0  0.5614959755933637 0.08473383882735666 0  0.5322596382677409 0.09091321471851833 0  0.5029835339452652 0.09690037660788667 0  0.4736699718296479 0.1027023189330479 0  0.4443098233029065 0.1082645407993157 0  0.4149010073711484 0.1135628320994786 0  0.3854783433069935 0.1187834305436249 0  0.3560099120866912 0.1237401372022409 0  0.3265194297032009 0.1285612560788899 0  0.2969990933156311 0.1331978653889243 0  0.2674324755030887 0.1375295585331712 0  0.2378244583146815 0.1415687425006859 0  0.2081641615162468 0.1452020213412918 0  0.178471661952439 0.1485620625312685 0  0.1487339230235372 0.1514955168237853 0  0.1189428323115893 0.1538263087404927 0  0.08910021994414483 0.1553171437333857 0  0.05922253747548557 0.1554056076484339 0  0.02955586583595391 0.1522076925616009 0  0.007586802157453682 0.1349677647109762 0.02979797979797998  0.007586802157453682 0.1349677647109762 0.05959595959595964  0.007586802157453682 0.1349677647109762 0.08939393939393964  0.007586802157453682 0.1349677647109762 0.1191919191919193  0.007586802157453682 0.1349677647109762 0.1489898989898993  0.007586802157453682 0.1349677647109762 0.1787878787878789  0.007586802157453682 0.1349677647109762 0.2085858585858589  0.007586802157453682 0.1349677647109762 0.2383838383838386  0.007586802157453682 0.1349677647109762 0.2681818181818186  0.007586802157453682 0.1349677647109762 0.2979797979797985  0.007586802157453682 0.1349677647109762 0.3277777777777782  0.007586802157453682 0.1349677647109762 0.3575757575757582  0.007586802157453682 0.1349677647109762 0.3873737373737379  0.007586802157453682 0.1349677647109762 0.4171717171717177  0.007586802157453682 0.1349677647109762 0.4469696969696978  0.007586802157453682 0.1349677647109762 0.4767676767676775  0.007586802157453682 0.1349677647109762 0.5065656565656572  0.007586802157453682 0.1349677647109762 0.5363636363636372  0.007586802157453682 0.1349677647109762 0.5661616161616171  0.007586802157453682 0.1349677647109762 0.5959595959595968  0.007586802157453682 0.1349677647109762 0.6257575757575764  0.007586802157453682 0.1349677647109762 0.6555555555555564  0.007586802157453682 0.1349677647109762 0.685353535353536  0.007586802157453682 0.1349677647109762 0.7151515151515156  0.007586802157453682 0.1349677647109762 0.7449494949494957  0.007586802157453682 0.1349677647109762 0.7747474747474754  0.007586802157453682 0.1349677647109762 0.8045454545454551  0.007586802157453682 0.1349677647109762 0.8343434343434349  0.007586802157453682 0.1349677647109762 0.864141414141415  0.007586802157453682 0.1349677647109762 0.8939393939393944  0.007586802157453682 0.1349677647109762 0.9237373737373743  0.007586802157453682 0.1349677647109762 0.9535353535353542  0.007586802157453682 0.1349677647109762 0.9833333333333343  0.007586802157453682 0.1349677647109762 1.013131313131314  0.007586802157453682 0.1349677647109762 1.042929292929294  0.007586802157453682 0.1349677647109762 1.072727272727274  0.007586802157453682 0.1349677647109762 1.102525252525254  0.007586802157453682 0.1349677647109762 1.132323232323233  0.007586802157453682 0.1349677647109762 1.162121212121214  0.007586802157453682 0.1349677647109762 1.191919191919194  0.007586802157453682 0.1349677647109762 1.221717171717173  0.007586802157453682 0.1349677647109762 1.251515151515154  0.007586802157453682 0.1349677647109762 1.281313131313133  0.007586802157453682 0.1349677647109762 1.311111111111113  0.007586802157453682 0.1349677647109762 1.340909090909093  0.007586802157453682 0.1349677647109762 1.370707070707073  0.007586802157453682 0.1349677647109762 1.400505050505053  0.007586802157453682 0.1349677647109762 1.430303030303033  0.007586802157453682 0.1349677647109762 1.460101010101013  0.007586802157453682 0.1349677647109762 1.489898989898993  0.007586802157453682 0.1349677647109762 1.519696969696973  0.007586802157453682 0.1349677647109762 1.549494949494953  0.007586802157453682 0.1349677647109762 1.579292929292933  0.007586802157453682 0.1349677647109762 1.609090909090912  0.007586802157453682 0.1349677647109762 1.638888888888892  0.007586802157453682 0.1349677647109762 1.668686868686872  0.007586802157453682 0.1349677647109762 1.698484848484852  0.007586802157453682 0.1349677647109762 1.728282828282832  0.007586802157453682 0.1349677647109762 1.758080808080812  0.007586802157453682 0.1349677647109762 1.787878787878792  0.007586802157453682 0.1349677647109762 1.817676767676772  0.007586802157453682 0.1349677647109762 1.847474747474752  0.007586802157453682 0.1349677647109762 1.877272727272732  0.007586802157453682 0.1349677647109762 1.907070707070711  0.007586802157453682 0.1349677647109762 1.936868686868692  0.007586802157453682 0.1349677647109762 1.966666666666672  0.007586802157453682 0.1349677647109762 1.996464646464651  0.007586802157453682 0.1349677647109762 2.02626262626263  0.007586802157453682 0.1349677647109762 2.05606060606061  0.007586802157453682 0.1349677647109762 2.08585858585859  0.007586802157453682 0.1349677647109762 2.115656565656569  0.007586802157453682 0.1349677647109762 2.145454545454549  0.007586802157453682 0.1349677647109762 2.175252525252528  0.007586802157453682 0.1349677647109762 2.205050505050509  0.007586802157453682 0.1349677647109762 2.234848484848488  0.007586802157453682 0.1349677647109762 2.264646464646468  0.007586802157453682 0.1349677647109762 2.294444444444448  0.007586802157453682 0.1349677647109762 2.324242424242427  0.007586802157453682 0.1349677647109762 2.354040404040407  0.007586802157453682 0.1349677647109762 2.383838383838387  0.007586802157453682 0.1349677647109762 2.413636363636366  0.007586802157453682 0.1349677647109762 2.443434343434345  0.007586802157453682 0.1349677647109762 2.473232323232325  0.007586802157453682 0.1349677647109762 2.503030303030305  0.007586802157453682 0.1349677647109762 2.532828282828285  0.007586802157453682 0.1349677647109762 2.562626262626264  0.007586802157453682 0.1349677647109762 2.592424242424244  0.007586802157453682 0.1349677647109762 2.622222222222224  0.007586802157453682 0.1349677647109762 2.652020202020203  0.007586802157453682 0.1349677647109762 2.681818181818182  0.007586802157453682 0.1349677647109762 2.711616161616162  0.007586802157453682 0.1349677647109762 2.741414141414142  0.007586802157453682 0.1349677647109762 2.771212121212121  0.007586802157453682 0.1349677647109762 2.801010101010102  0.007586802157453682 0.1349677647109762 2.830808080808081  0.007586802157453682 0.1349677647109762 2.860606060606061  0.007586802157453682 0.1349677647109762 2.89040404040404  0.007586802157453682 0.1349677647109762 2.92020202020202  0.02955586665970645 0.152207692743969 2.95  0.0592225391622407 0.1554056076997827 2.95  0.08910022247431289 0.1553171436543912 2.95  0.1189428356790401 0.1538263085106716 2.95  0.1487339272258054 0.1514955164485778 2.95  0.1784716669857977 0.1485620619846548 2.95  0.2081641673828153 0.1452020206530984 2.95  0.2378244650101828 0.1415687416400932 2.95  0.2674324830262811 0.1375295574952611 2.95  0.2969991016635551 0.1331978641562543 2.95  0.3265194388709149 0.1285612546257254 2.95  0.3560099220724205 0.1237401355215495 2.95  0.3854783541254482 0.1187834287283932 2.95  0.4149010190000992 0.113562830018489 2.95  0.4443098357391194 0.1082645384431056 2.95  0.4736699850933383 0.1027023164111393 2.95  0.5029835480169053 0.09690037382073331 2.95  0.5322596531280808 0.09091321157617849 2.95  0.5614959912517894 0.08473383538307885 2.95  0.590669146638386 0.07826268936393518 2.95  0.6197762442228643 0.07150054083737761 2.95  0.6488235184809702 0.06448534181312304 2.95  0.677815065462649 0.05724421705657579 2.95  0.7067311949546904 0.04970751927410625 2.95  0.7355999615241583 0.04199207483830233 2.95  0.7644190072646493 0.03409177195406968 2.95  0.7931649980312939 0.02592934421293083 2.95  0.8218485144464328 0.01755095932049689 2.95  0.8505080634672842 0.009090235007654539 2.95  0.8790871574001908 0.0003613995875277054 2.95  0.9076023447508066 -0.008572998642740692 2.95  0.9360617600175944 -0.01768328503285081 2.95  0.9643989359861183 -0.02716705036944823 2.95  0.9925137450002565 -0.037288883837853 0.02979797979797999  0.992513745000784 -0.03728888383812164 0.05959595959595966  0.9925137450013115 -0.03728888383839029 0.08939393939393965  0.992513745001839 -0.03728888383865891 0.1191919191919193  0.9925137450023664 -0.03728888383892755 0.1489898989898993  0.9925137450028939 -0.0372888838391962 0.178787878787879  0.9925137450034214 -0.03728888383946482 0.2085858585858589  0.9925137450039488 -0.03728888383973347 0.2383838383838386  0.9925137450044763 -0.03728888384000211 0.2681818181818186  0.9925137450050038 -0.03728888384027073 0.2979797979797986  0.9925137450055312 -0.03728888384053938 0.3277777777777782  0.9925137450060587 -0.03728888384080802 0.3575757575757582  0.9925137450065862 -0.03728888384107667 0.3873737373737379  0.9925137450071136 -0.03728888384134529 0.4171717171717179  0.9925137450076411 -0.03728888384161392 0.4469696969696979  0.9925137450081686 -0.03728888384188257 0.4
[...]
<PointData  Vectors="Displacement"> 
<DataArray  type="Float64"  Name="Displacement"  NumberOfComponents="3" format="ascii">0.0000000000000000e+00 0.0000000000000000e+00 0.0000000000000000e+00  0.0000000000000000e+00 0.0000000000000000e+00 0.0000000000000000e+00  6.0771030407192055e-04 1.5389839149300576e-03 8.5103986106748288e-05  6.5444159187962102e-04 1.7244957030502219e-03 -1.1480487514184313e-04  0.0000000000000000e+00 0.0000000000000000e+00 0.0000000000000000e+00  0.0000000000000000e+00 0.0000000000000000e+00 0.0000000000000000e+00  0.0000000000000000e+00 0.0000000000000000e+00 0.0000000000000000e+00  0.0000000000000000e+00 0.0000000000000000e+00 0.0000000000000000e+00  0.0000000000000000e+00 0.0000000000000000e+00 0.0000000000000000e+00  0.0000000000000000e+00 0.0000000000000000e+00 0.0000000000000000e+00  0.0000000000000000e+00 0.0000000000000000e+00 0.0000000000000000e+00  0.0000000000000000e+00 0.0000000000000000e+00 0.0000000000000000e+00  0.0000000000000000e+00 0.0000000000000000e+00 0.0000000000000000e+00  0.0000000000000000e+00 0.0000000000000000e+00 0.0000000000000000e+00  0.0000000000000000e+00 0.0000000000000000e+00 0.0000000000000000e+00  0.0000000000000000e+00 0.0000000000000000e+00 0.0000000000000000e+00  0.0000000000000000e+00 0.0000000000000000e+00 0.0000000000000000e+00  0.0000000000000000e+00 0.0000000000000000e+00 0.0000000000000000e+00  0.0000000000000000e+00 0.0000000000000000e+00 0.0000000000000000e+00  0.0000000000000000e+00 0.0000000000000000e+00 0.0000000000000000e+00  0.0000000000000000e+00 0.0000000000000000e+00 0.0000000000000000e+00  0.0000000000000000e+00 0.0000000000000000e+00 0.0000000000000000e+00  0.0000000000000000e+00 0.0000000000000000e+00 0.0000000000000000e+00  0.0000000000000000e+00 0.0000000000000000e+00 0.0000000000000000e+00  0.0000000000000000e+00 0.0000000000000000e+00 0.0000000000000000e+00  0.0000000000000000e+00 0.0000000000000000e+00 0.0000000000000000e+00  0.0000000000000000e+00 0.0000000000000000e+00 0.0000000000000000e+00  0.0000000000000000e+00 0.0000000000000000e+00 0.0000000000000000e+00  0.0000000000000000e+00 0.0000000000000000e+00 0.0000000000000000e+00  0.0000000000000000e+00 0.0000000000000000e+00 0.0000000000000000e+00  0.0000000000000000e+00 0.0000000000000000e+00 0.0000000000000000e+00  0.0000000000000000e+00 0.0000000000000000e+00 0.0000000000000000e+00  0.0000000000000000e+00 0.0000000000000000e+00 0.0000000000000000e+00  0.0000000000000000e+00 0.0000000000000000e+00 0.0000000000000000e+00  0.0000000000000000e+00 0.0000000000000000e+00 0.0000000000000000e+00  0.0000000000000000e+00 0.0000000000000000e+00 0.0000000000000000e+00  0.0000000000000000e+00 0.0000000000000000e+00 0.0000000000000000e+00  1.4472702562393251e-06 3.5858640830845168e-07 1.5349703616526324e-06  2.2417766840745927e-06 3.5635519408833440e-07 2.5121071216376709e-06  2.9043766583343204e-06 -1.1560365793798611e-07 3.4924990363662786e-06  3.4481314294063459e-06 -1.8397852761939059e-06 4.5557571929042858e-06  3.6609501044814362e-06 -4.5152998832408219e-06 5.2974400287843163e-06  3.7502866478169839e-06 -8.6529041298117505e-06 5.7038739527131036e-06  3.6591283508433962e-06 -1.3792380047221105e-05 6.2007541036662380e-06  3.3229548179448124e-06 -2.0057134081812010e-05 6.7335196061794238e-06  2.7273861740150958e-06 -2.7267005197846478e-05 7.2667172039869739e-06  2.0916669017715779e-06 -3.5133017968571039e-05 7.8342912817002368e-06  1.3295581047812418e-06 -4.3431500503869854e-05 8.3861982817352647e-06  5.5517383119077166e-07 -5.1164781105232551e-05 8.6117815071887386e-06  2.8569120372831417e-07 -5.7630358826616941e-05 9.0411382713585136e-06  -2.1794458875426434e-07 -6.2969402997852130e-05 9.6430227210451981e-06  -1.1076752920588506e-07 -6.6498242183582582e-05 1.0132050465367830e-05  6.9553633590060094e-07 -6.6232890211907199e-05 1.0465539774013837e-05  1.6110858961598281e-06 -6.3064788115924089e-05 1.1128028730138713e-05  3.4023660976795775e-06 -5.7055626629945905e-05 1.1851128779711137e-05  5.7352968744587465e-06 -4.6802910194176827e-05 1.2003323528936870e-05  8.7847617438404422e-06 -3.3167504774173045e-05 1.2536403451135081e-05  1.1763279560209445e-05 -1.7509019328175766e-05 1.3831806645477747e-05  1.6511956934209815e-05 1.4460860096183253e-06 1.3996837003551048e-05  2.0624037121746274e-05 2.1575024020952825e-05 1.4646873891860340e-05  2.5024616094996898e-05 4.3375535968687466e-05 1.5587000673248805e-05  2.9695696632650938e-05 6.5050654583902770e-05 1.6369374825849780e-05  3.3833012559451322e-05 8.4791569672360847e-05 1.6700667874713503e-05  3.7889489993746569e-05 1.0183281974001154e-04 1.7985115707183663e-05  4.1296630240141195e-05 1.1610364989963566e-04 1.9020037421261034e-05  4.4156556222556636e-05 1.2630978979046552e-04 1.9175249683068131e-05  4.6585399062535670e-05 1.3346163642530710e-04 2.0460089675403693e-05  4.8053884481567335e-05 1.3497832006348538e-04 2.0730014752750203e-05  4.8672255586122122e-05 1.3236224117661670e-04 2.2279912000170233e-05  4.9107070056338283e-05 1.2608548698287914e-04 2.3162928969591762e-05  4.8609264450629975e-05 1.1700738862488681e-04 2.4479745968635811e-05  4.8269555303459914e-05 1.0423863555549612e-04 2.5542301793613433e-05  4.6931287518257014e-05 8.9320697817667113e-05 2.7632248329219000e-05  4.5941199204435614e-05 7.2517425150835961e-05 2.8686563438721833e-05  4.4479438940981095e-05 5.3909906668384307e-05 3.0332247922309459e-05  4.3436373496774445e-05 3.4122871661889908e-05 3.1288296515103862e-05  4.1858102546520061e-05 1.3376406556613940e-05 3.2822606570092262e-05  4.0443810259587952e-05 -8.3319402915129839e-06 3.4507486883744978e-05  3.9041684370768451e-05 -3.0867663443672471e-05 3.6043753155876058e-05  3.7397065294111075e-05 -5.4696215196240594e-05 3.8042123255633198e-05  3.5585855497101422e-05 -7.9788621176660947e-05 4.0183572898879884e-05  3.4311147905356322e-05 -1.0658774474175415e-04 4.1895961811599702e-05  3.2905560810696422e-05 -1.3437654151172859e-04 4.3483083779214852e-05  3.1511177746604026e-05 -1.6304061051507056e-04 4.5058355249015454e-05  3.0060827578792676e-05 -1.9235389439937201e-04 4.6702500467185165e-05  2.8927626342580478e-05 -2.2105855373349365e-04 4.8085450501121431e-05  2.8040513894626627e-05 -2.4935904361174556e-04 4.9894589082051172e-05  2.7569692298678934e-05 -2.7606872041222778e-04 5.1386494378244396e-05  2.7680540926831220e-05 -3.0027099028744455e-04 5.2751853147673937e-05  2.8546360590712889e-05 -3.2072201801359247e-04 5.4424564791989245e-05  3.0061561446483474e-05 -3.3923608001234834e-04 5.5721457704300246e-05  3.1993015494109790e-05 -3.5344146699898139e-04 5.6802273847253185e-05  3.4572652104326436e-05 -3.6529202645904646e-04 5.7878763872252450e-05  3.7965262775789172e-05 -3.7431738723570443e-04 5.8922330220168988e-05  4.1165899474390772e-05 -3.8220621250525391e-04 6.0156720361701555e-05  4.5076997263123806e-05 -3.8670947822282522e-04 6.0409282128556700e-05  4.9314557046371157e-05 -3.8915377814086407e-04 6.1641811369210887e-05  5.4387187390281148e-05 -3.8902882185339104e-04 6.2724658916799925e-05  5.9534439431904028e-05 -3.8555993764701971e-04 6.2796090640542936e-05  6.5463300972515892e-05 -3.7934169148801225e-04 6.3585779919663921e-05  7.1974877117614135e-05 -3.6884913448122377e-04 6.5642358694501692e-05  7.9377898939452779e-05 -3.5487495031207841e-04 6.7323007356129749e-05  8.7838338756959084e-05 -3.3669002013600973e-04 6.8393065893539208e-05  9.7108006013477455e-05 -3.1504826348714758e-04 6.9550392870406681e-05  1.0688662305648026e-04 -2.8942822382867971e-04 6.9864293977464395e-05  1.1707377917871098e-04 -2.6026834438544060e-04 7.0730978667934868e-05  1.2804232715703798e-04 -2.2890205550658198e-04 7.1544101973357443e-05  1.3919958966854325e-04 -1.9544145882131951e-04 7.2402217302849450e-05  1.5124324165378595e-04 -1.5957552692595010e-04 7.2556231197122049e-05  1.6346404447941363e-04 -1.2119643536327113e-04 7.1974377388424519e-05  1.7567318863750001e-04 -8.0215846108262775e-05 7.3180744355419479e-05  1.8877046090192714e-04 -3.5562818082561894e-05 7.3871067320706896e-05  2.0273832157289683e-04 1.0610176905992788e-05 7.4289309797741178e-05  2.1635365347567675e-04 5.9656873888862037e-05 7.4705767658260957e-05  2.3110592554544923e-04 1.1125107228550998e-04 7.6006627441347146e-05  2.4650836907958020e-04 1.6681808474148922e-04 7.6207055805983258e-05  2.6184776662296292e-04 2.2384049799474223e-04 7.7063372208270692e-05  2.7758677575829085e-04 2.8217872156502291e-04 7.7671020482024329e-05  2.9427426960108746e-04 3.4268635657060055e-04 7.7407191720486030e-05  3.1086922079189125e-04 4.0499755892355337e-04 7.7810288789018336e-05  3.2736978034639258e-04 4.6895422693455123e-04 7.8507766127124617e-05  3.4454796556555438e-04 5.3427248058606153e-04 7.8774243798348319e-05  3.6223188798121652e-04 6.0133001015033930e-04 7.8780133936590281e-05  3.7952734369800018e-04 6.6958235451421741e-04 7.9487291967652373e-05  3.9752869375067124e-04 7.3856971461498449e-04 7.9494607643926300e-05  4.1544838764391882e-04 8.0839144692339228e-04 7.9979619564905078e-05  4.3366810977741010e-04 8.7920920650721047e-04 8.0440943963049216e-05  4.5187310101273088e-04 9.5068405099883767e-04 8.1050408705934999e-05  4.7054016679327914e-04 1.0228315446346344e-03 8.1541626720907874e-05  4.8938924889441670e-04 1.0950652014953864e-03 8.1859176550572369e-05  5.0796485532589438e-04 1.1680060219272934e-03 8.2420438506325544e-05  5.2725618971457156e-04 1.2414346257449578e-03 8.2873393633226103e-05  5.4638675031748398e-04 1.3154494279938886e-03 8.3515957684608322e-05  5.6633603668191452e-04 1.3897784189014790e-03 8.4115282306302769e-05  5.8668642442745379e-04 1.4646008141702800e-03 8.4938730352215059e-05  6.1133276245606358e-04 1.5352130322659233e-03 2.8136258771339080e-05  6.1074744573182019e-04 1.5299378899443861e-03 2.7203808489502279e-07  6.0882407107950578e-04 1.5244473638773522e-03 -1.7891437417410024e-05  6.0697685673613707e-04 1.5188704378312633e-03 -3.2427371643363219e-05  6.0546350224403801e-04 1.5144773037491421e-03 -4.4568050414421286e-05  6.0386856781822953e-04 1.5102113663023062e-03 -5.5481297578491531e-05  6.0241747928291138e-04 1.5063118144076856e-03 -6.4815090470120824e-05  6.0093149857185966e-04 1.5026324629302205e-03 -7.3507924944357026e-05  5.9912710737431102e-04 1.4994570064782182e-03 -8.0741739476096803e-05  5.9744604289790231e-04 1.4963732926663695e-03 -8.7310126629965739e-05  5.9605384232663090e-04 1.4940618042062956e-03 -9.3178349074551879e-05  5.9459240437167331e-04 1.4920745817316844e-03 -9.8723195955665102e-05  5.9300377862802982e-04 1.4907408943945798e-03 -1.0374050717721505e-04  5.9174116404734039e-04 1.4902517584521365e-03 -1.0831309797749858e-04  5.9053995263820839e-04 1.4903166949311534e-03 -1.1278972184973127e-04  5.8958370831959490e-04 1.4916427541764197e-03 -1.1695632468460588e-04  5.8846803225259434e-04 1.4934018112318693e-03 -1.2029203570477146e-04  5.8812262258827342e-04 1.4964490722876309e-03 -1.2365654512183242e-04  5.8734052584405124e-04 1.4999997476877757e-03 -1.2627202093771383e-04  5.8741828999682498e-04 1.5048170949784913e-03 -1.2855126713274615e-04  5.8752529897441465e-04 1.5104335495032192e-03 -1.3021264843735277e-04  5.8820965383087640e-04 1.5170176544957242e-03 -1.3124607174581470e-04  5.8895018671631524e-04 1.5248170153410365e-03 -1.3197976737616004e-04  5.9047841679520693e-04 1.5336774710425047e-03 -1.3203106915181596e-04  5.9238296331105063e-04 1.5440423894898117e-03 -1.3206962510554723e-04  5.9482216125137668e-04 1.5558738788400252e-03 -1.3191772047658486e-04  5.9818780416947301e-04 1.5687915842599091e-03 -1.3095066964867493e-04  6.0231127213110044e-04 1.5831213992626861e-03 -1.2952395212907313e-04  6.0711348675328704e-04 1.5994243469850638e-03 -1.2790282753260149e-04  6.1270444118662396e-04 1.6188850291968856e-03 -1.2622677327980635e-04  6.2145645660159491e-04 1.6430050802858922e-03 -1.2412384105117301e-04  6.3209553983239802e-04 1.6701918221189668e-03 -1.2184381248112050e-04  6.4581062996094097e-04 1.7004068496112427e-03 -1.1938720025261083e-04  3.3563307791123025e-06 5.3011838775133308e-06 -1.5582953018148658e-06  6.1444576828589471e-06 1.3072515751415231e-05 -2.4778788278314848e-06  8.5290765258774055e-06 2.0283261944619155e-05 -3.7441328114073047e-06  1.0963095803497593e-05 2.8917207372497261e-05 -4.7680166630405982e-06  1.3479852079260618e-05 3.7846698969606325e-05 -6.0847308903328445e-06  1.5937408823499112e-05 4.5788981754597712e-05 -7.5834978070709107e-06  1.8432823333485762e-05 5.3264056691835427e-05 -9.2094654476608053e-06  2.0184153158670976e-05 5.7818642209223756e-05 -1.1112213606188941e-05  2.1016060219903147e-05 5.7725089669640522e-05 -1.3276868952728890e-05  2.1276619309824507e-05 5.3498961134994511e-05 -1.3988071773151672e-05  2.0515664300347738e-05 4.7096352607238957e-05 -1.5757546740076981e-05  1.9837676450074452e-05 3.7342124844791368e-05 -1.8045490828630954e-05  1.8523179894172951e-05 2.3590712506431655e-05 -2.0061265180644055e-05  1.5630128438513600e-05 4.3621855240419560e-06 -2.2168956816194673e-05  9.0716138873667269e-06 -2.7585034706025069e-05 -2.3265889389273917e-05  4.1339806664288194e-06 -5.6708541307278887e-05 -2.3591556494088835e-05  -8.6626629289261654e-07 -8.5889764110219153e-05 -2.3875542563333821e-05  -6.9600887730948172e-06 -1.1657102630657955e-04 -2.3294153439288914e-05  -1.0549570169843473e-05 -1.3896768080275406e-04 -2.2716463623505168e-05  -1.2450696965741452e-05 -1.5607240679666826e-04 -2.1033080865011004e-05  -1.5141842728528624e-05 -1.6873106646526746e-04 -1.9303403160518402e-05  -1.6717104511458206e-05 -1.7958333206966311e-04 -1.9021250197820117e-05  -1.7412327445403195e-05 -1.8333982544604054e-04 -1.7930256047975180e-05  -1.5609685979159265e-05 -1.7263584876351474e-04 -1.3863903158415450e-05  -8.0879206913321782e-06 -1.3809327867638117e-04 -1.1574161785304583e-05  4.3372159001873402e-06 -8.6837234191285405e-05 -9.4151262131543760e-06  1.6834806223828548e-05 -2.5830730329234431e-05 -8.3941012633366319e-06  3.1108873952103653e-05 3.7211796635279797e-05 -8.9083956749819639e-06  4.3365647577653050e-05 9.7625043132325444e-05 -1.0837221883275094e-05  5.5292685437860467e-05 1.5791613009788176e-04 -1.3183125654218202e-05  6.6885677429062696e-05 2.1678177872044672e-04 -1.6303180403087874e-05  7.8972683606449919e-05 2.7298879575523378e-04 -2.0746998279745232e-05  8.9531858365120282e-05 3.1332562746565163e-04 -2.9626818223985525e-05  9.5983824631313056e-05 3.4045966428496302e-04 -3.2821755409820346e-05  1.0339506944512007e-04 3.5844822094255313e-04 -4.0691390734736240e-05  1.0378094609459360e-04 3.6031423924139187e-04 -4.5500634464861144e-05  9.9595110325807420e-05 3.2092289272288332e-04 -5.3483505693230952e-05  8.5040114261821480e-05 2.4746996019047487e-04 -5.9691071576963034e-05  6.9756675191445696e-05 1.6776047726313069e-04 -6.6055436361224352e-05  5.5988845676622520e-05 8.6633318251046483e-05 -7.0581032633007943e-05  4.0194425429956422e-05 2.6738973809473023e-06 -7.2425314858418782e-05  2.7884250926740442e-05 -7.4412599050242657e-05 -7.2469724083837919e-05  1.8592381633793260e-05 -1.4088859191404841e-04 -7.2332156850355632e-05  1.5233485641425228e-05 -1.8225387564312182e-04 -7.1325631469729221e-05  1.4178532765333512e-05 -2.1010604957377192e-04 -6.7707120056471147e-05  1.6130332783857982e-05 -2.2087568508389504e-04 -6.6862264246340424e-05  1.9863655098128423e-05 -2.2326099821154809e-04 -6.9304119277799510e-05  2.7251107922164786e-05 -2.1504477449595490e-04 -6.8394894008823280e-05  3.3550463268075982e-05 -2.0394629900516813e-04 -6.8254512474526493e-05  4.1224274047450054e-05 -1.8685341308566936e-04 -7.0643471782115579e-05  5.0073197807899597e-05 -1.7057170211997032e-04 -7.3802726359490563e-05  5.6520350680827050e-05 -1.5976454750627679e-04 -7.5361897224634513e-05  6.3253030968428098e-05 -1.5401097250584489e-04 -8.0748523148854918e-05  6.5641370112657323e-05 -1.6387851837373150e-04 -8.3024625175059870e-05  6.5728891746293241e-05 -1.8527305283024616e-04 -8.5028599227699619e-05  6.5793804041660995e-05 -2.0659003352800176e-04 -8.6591068432985419e-05  6.8041462367631535e-05 -2.1949756150785489e-04 -8.7640613175233551e-05  7.1708897280146083e-05 -2.2682785425264313e-04 -8.7603535273137021e-05  7.5933306613911554e-05 -2.2883540166462361e-04 -8.7686184373090878e-05  8.0008336764630271e-05 -2.2667662939273637e-04 -8.8062341436582049e-05  8.9089556577452096e-05 -2.0586869253593618e-04 -8.6743169841511046e-05  1.0474311899623827e-04 -1.6468542498243569e-04 -8.5079222757418390e-05  1.1719332740430256e-04 -1.2581916350518655e-04 -8.6261970634155631e-05  1.2961424676670910e-04 -8.8030393726536694e-05 -8.8077063681334745e-05  1.4209982935866163e-04 -5.1257697712126586e-05 -9.0151519924325379e-05  1.5226952971830249e-04 -2.4330378424741568e-05 -9.2253247458829699e-05  1.5873380220688760e-04 -1.0908113613277978e-05 -9.4655289975688814e-05  1.6560957604356847e-04 1.6446799586620135e-06 -9.6876960791071674e-05  1.7438582179519851e-04 1.7990723444115929e-05 -9.7036451259049005e-05  1.8359349216667115e-04 4.0646180843185503e-05 -9.7451416899275599e-05  1.9194209322369787e-04 6.4592587197462374e-05 -9.7824725965395007e-05  2.0127866166349447e-04 9.1173292506606125e-05 -9.8505226602638041e-05  2.1427378154876994e-04 1.3032154944394569e-04 -9.8451607061659184e-05  2.2678898690034011e-04 1.7108313326354550e-04 -9.8794854618791062e-05  2.4162735095185117e-04 2.2052607305008998e-04 -9.8360579265602594e-05  2.5693573114739411e-04 2.7443643566763931e-04 -9.9026004046576452e-05  2.7053530673517743e-04 3.2162304457399358e-04 -9.9253605626574220e-05  2.8340728856229727e-04 3.6591869999088222e-04 -1.0013163540803602e-04  2.9605655529499873e-04 4.0958327745136298e-04 -1.0098134243535191e-04  3.1004587791528453e-04 4.5833157585339278e-04 -1.0057979847903883e-04  3.2501980414767863e-04 5.1327748663959594e-04 -1.0056562867930258e-04  3.3980343015871975e-04 5.6792765545244435e-04 -1.0050166924901210e-04  3.5549563707340412e-04 6.2546579535755723e-04 -1.0091797456231668e-04  3.7127832795489865e-04 6.8443238866984024e-04 -1.0153253301705306e-04  3.8642822386407720e-04 7.4209258192820611e-04 -1.0192441100653245e-04  4.0262592585713829e-04 8.0213315671029644e-04 -1.0228084182489482e-04  4.1846793052805067e-04 8.6309277124572048e-04 -1.0291845807748861e-04  4.3493527846088874e-04 9.2542918629246363e-04 -1.0308687699116969e-04  4.5167504988700546e-04 9.8990022214562518e-04 -1.0305720934421770e-04  4.6933328213266630e-04 1.0576087666748946e-03 -1.0369174027107471e-04  4.8710416433018052e-04 1.1257609681955029e-03 -1.0438385003403790e-04  5.0499316369443856e-04 1.1942805957115856e-03 -1.0521445291555455e-04  5.2339421943372341e-04 1.2637357134134824e-03 -1.0589546106093500e-04  5.4178859408789040e-04 1.3341356900141183e-03 -1.0675048516983790e-04  5.6119559754724217e-04 1.4068961473764571e-03 -1.0799829564936483e-04  5.8172372106262099e-04 1.4825406701901825e-03 -1.0974745244059368e-04  6.0360085268784289e-04 1.5615709651311070e-03 -1.1163558492699837e-04  6.2683453699821721e-04 1.6401655467403757e-03 -1.1328918002152952e-04  0.0000000000000000e+00 0.0000000000000000e+00 0.0000000000000000e+00  0.0000000000000000e+00 0.0000000000000000e+00 0.0000000000000000e+00  0.0000000000000000e+00 0.0000000000000000e+00 0.0000000000000000e+00  0.0000000000000000e+00 0.0000000000000000e+00 0.0000000000000000e+00  0.0000000000000000e+00 0.0000000000000000e+00 0.0000000000000000e+00  0.0000000000000000e+00 0.0000000000000000e+00 0.0000000000000000e+00  0.0000000000000000e+00 0.0000000000000000e+00 0.0000000000000000e+00  0.0000000000000000e+00 0.0000000000000000e+00 0.0000000000000000e+00  0.0000000000000000e+00 0.0000000000000000e+00 0.0000000000000000e+00  0.0000000000000000e+00 0.0000000000000000e+00 0.0000000000000000e+00  0.0000000000000000e+00 0.0000000000000000e+00 0.0000000000000000e+00  0.0000000000000000e+00 0.0000000000000000e+00 0.0000000000000000e+00  0.0000000000000000e+00 0.0000000000000000e+00 0.0000000000000000e+00  0.0000000000000000e+00 0.0000000000000000e+00 0.0000000000000000e+00  0.0000000000000000e+00 0.0000000000000000e