<?xml version="1.0"?>
<VTKFile type="UnstructuredGrid"  version="0.1"  >
<UnstructuredGrid>
<Piece  NumberOfPoints="10957" NumberOfCells="41672">
<Points>
<DataArray  type="Float64"  NumberOfComponents="3"  format="ascii">0.9925137449997291 -0.03728888383758438 0  0.007586802157453682 0.1349677647109762 0  0.007586802157453682 0.1349677647109762 2.95  0.9925137450519488 -0.03728888386417941 2.95  0.9643989096501694 -0.02716704134803519 0  0.9360617343536817 -0.01768327665856045 0  0.9076023198175265 -0.00857299075128265 0  0.8790871331840997 0.0003614069448361137 0  0.8505080400473725 0.009090242106019955 0  0.8218484917797876 0.0175509659925942 0  0.7931649761035906 0.02592935040050181 0  0.764418986146959 0.03409177790458878 0  0.7355999411752842 0.04199208040343261 0  0.706731175369029 0.04970752442632946 0  0.6778150466362781 0.05724422177386088 0  0.6488235004287045 0.06448534614328195 0  0.6197762269986674 0.07150054499793095 0  0.5906691301945188 0.07826269316251469 0  0.5614959755933637 0.08473383882735666 0  0.5322596382677409 0.09091321471851833 0  0.5029835339452652 0.09690037660788667 0  0.4736699718296479 0.1027023189330479 0  0.4443098233029065 0.1082645407993157 0  0.4149010073711484 0.1135628320994786 0  0.3854783433069935 0.1187834305436249 0  0.3560099120866912 0.1237401372022409 0  0.3265194297032009 0.1285612560788899 0  0.2969990933156311 0.1331978653889243 0  0.2674324755030887 0.1375295585331712 0  0.2378244583146815 0.1415687425006859 0  0.2081641615162468 0.1452020213412918 0  0.178471661952439 0.1485620625312685 0  0.1487339230235372 0.1514955168237853 0  0.1189428323115893 0.1538263087404927 0  0.08910021994414483 0.1553171437333857 0  0.05922253747548557 0.1554056076484339 0  0.02955586583595391 0.1522076925616009 0  0.007586802157453682 0.1349677647109762 0.02979797979797998  0.007586802157453682 0.1349677647109762 0.05959595959595964  0.007586802157453682 0.1349677647109762 0.08939393939393964  0.007586802157453682 0.1349677647109762 0.1191919191919193  0.007586802157453682 0.1349677647109762 0.1489898989898993  0.007586802157453682 0.1349677647109762 0.1787878787878789  0.007586802157453682 0.1349677647109762 0.2085858585858589  0.007586802157453682 0.1349677647109762 0.2383838383838386  0.007586802157453682 0.1349677647109762 0.2681818181818186  0.007586802157453682 0.1349677647109762 0.2979797979797985  0.007586802157453682 0.1349677647109762 0.3277777777777782  0.007586802157453682 0.1349677647109762 0.3575757575757582  0.007586802157453682 0.1349677647109762 0.3873737373737379  0.007586802157453682 0.1349677647109762 0.4171717171717177  0.007586802157453682 0.1349677647109762 0.4469696969696978  0.007586802157453682 0.1349677647109762 0.4767676767676775  0.007586802157453682 0.1349677647109762 0.5065656565656572  0.007586802157453682 0.1349677647109762 0.5363636363636372  0.007586802157453682 0.1349677647109762 0.5661616161616171  0.007586802157453682 0.1349677647109762 0.5959595959595968  0.007586802157453682 0.1349677647109762 0.6257575757575764  0.007586802157453682 0.1349677647109762 0.6555555555555564  0.007586802157453682 0.1349677647109762 0.685353535353536  0.007586802157453682 0.1349677647109762 0.7151515151515156  0.007586802157453682 0.1349677647109762 0.7449494949494957  0.007586802157453682 0.1349677647109762 0.7747474747474754  0.007586802157453682 0.1349677647109762 0.8045454545454551  0.007586802157453682 0.1349677647109762 0.8343434343434349  0.007586802157453682 0.1349677647109762 0.864141414141415  0.007586802157453682 0.1349677647109762 0.8939393939393944  0.007586802157453682 0.1349677647109762 0.9237373737373743  0.007586802157453682 0.1349677647109762 0.9535353535353542  0.007586802157453682 0.1349677647109762 0.9833333333333343  0.007586802157453682 0.1349677647109762 1.013131313131314  0.007586802157453682 0.1349677647109762 1.042929292929294  0.007586802157453682 0.1349677647109762 1.072727272727274  0.007586802157453682 0.1349677647109762 1.102525252525254  0.007586802157453682 0.1349677647109762 1.132323232323233  0.007586802157453682 0.1349677647109762 1.162121212121214  0.007586802157453682 0.1349677647109762 1.191919191919194  0.007586802157453682 0.1349677647109762 1.221717171717173  0.007586802157453682 0.1349677647109762 1.251515151515154  0.007586802157453682 0.1349677647109762 1.281313131313133  0.007586802157453682 0.1349677647109762 1.311111111111113  0.007586802157453682 0.1349677647109762 1.340909090909093  0.007586802157453682 0.1349677647109762 1.370707070707073  0.007586802157453682 0.1349677647109762 1.400505050505053  0.007586802157453682 0.1349677647109762 1.430303030303033  0.007586802157453682 0.1349677647109762 1.460101010101013  0.007586802157453682 0.1349677647109762 1.489898989898993  0.007586802157453682 0.1349677647109762 1.519696969696973  0.007586802157453682 0.1349677647109762 1.549494949494953  0.007586802157453682 0.1349677647109762 1.579292929292933  0.007586802157453682 0.1349677647109762 1.609090909090912  0.007586802157453682 0.1349677647109762 1.638888888888892  0.007586802157453682 0.1349677647109762 1.668686868686872  0.007586802157453682 0.1349677647109762 1.698484848484852  0.007586802157453682 0.1349677647109762 1.728282828282832  0.007586802157453682 0.1349677647109762 1.758080808080812  0.007586802157453682 0.1349677647109762 1.787878787878792  0.007586802157453682 0.1349677647109762 1.817676767676772  0.007586802157453682 0.1349677647109762 1.847474747474752  0.007586802157453682 0.1349677647109762 1.877272727272732  0.007586802157453682 0.1349677647109762 1.907070707070711  0.007586802157453682 0.1349677647109762 1.936868686868692  0.007586802157453682 0.1349677647109762 1.966666666666672  0.007586802157453682 0.1349677647109762 1.996464646464651  0.007586802157453682 0.1349677647109762 2.02626262626263  0.007586802157453682 0.1349677647109762 2.05606060606061  0.007586802157453682 0.1349677647109762 2.08585858585859  0.007586802157453682 0.1349677647109762 2.115656565656569  0.007586802157453682 0.1349677647109762 2.145454545454549  0.007586802157453682 0.1349677647109762 2.175252525252528  0.007586802157453682 0.1349677647109762 2.205050505050509  0.007586802157453682 0.1349677647109762 2.234848484848488  0.007586802157453682 0.1349677647109762 2.264646464646468  0.007586802157453682 0.1349677647109762 2.294444444444448  0.007586802157453682 0.1349677647109762 2.324242424242427  0.007586802157453682 0.1349677647109762 2.354040404040407  0.007586802157453682 0.1349677647109762 2.383838383838387  0.007586802157453682 0.1349677647109762 2.413636363636366  0.007586802157453682 0.1349677647109762 2.443434343434345  0.007586802157453682 0.1349677647109762 2.473232323232325  0.007586802157453682 0.1349677647109762 2.503030303030305  0.007586802157453682 0.1349677647109762 2.532828282828285  0.007586802157453682 0.1349677647109762 2.562626262626264  0.007586802157453682 0.1349677647109762 2.592424242424244  0.007586802157453682 0.1349677647109762 2.622222222222224  0.007586802157453682 0.1349677647109762 2.652020202020203  0.007586802157453682 0.1349677647109762 2.681818181818182  0.007586802157453682 0.1349677647109762 2.711616161616162  0.007586802157453682 0.1349677647109762 2.741414141414142  0.007586802157453682 0.1349677647109762 2.771212121212121  0.007586802157453682 0.1349677647109762 2.801010101010102  0.007586802157453682 0.1349677647109762 2.830808080808081  0.007586802157453682 0.1349677647109762 2.860606060606061  0.007586802157453682 0.1349677647109762 2.89040404040404  0.007586802157453682 0.1349677647109762 2.92020202020202  0.02955586665970645 0.152207692743969 2.95  0.0592225391622407 0.1554056076997827 2.95  0.08910022247431289 0.1553171436543912 2.95  0.1189428356790401 0.1538263085106716 2.95  0.1487339272258054 0.1514955164485778 2.95  0.1784716669857977 0.1485620619846548 2.95  0.2081641673828153 0.1452020206530984 2.95  0.2378244650101828 0.1415687416400932 2.95  0.2674324830262811 0.1375295574952611 2.95  0.2969991016635551 0.1331978641562543 2.95  0.3265194388709149 0.1285612546257254 2.95  0.3560099220724205 0.1237401355215495 2.95  0.3854783541254482 0.1187834287283932 2.95  0.4149010190000992 0.113562830018489 2.95  0.4443098357391194 0.1082645384431056 2.95  0.4736699850933383 0.1027023164111393 2.95  0.5029835480169053 0.09690037382073331 2.95  0.5322596531280808 0.09091321157617849 2.95  0.5614959912517894 0.08473383538307885 2.95  0.590669146638386 0.07826268936393518 2.95  0.6197762442228643 0.07150054083737761 2.95  0.6488235184809702 0.06448534181312304 2.95  0.677815065462649 0.05724421705657579 2.95  0.7067311949546904 0.04970751927410625 2.95  0.7355999615241583 0.04199207483830233 2.95  0.7644190072646493 0.03409177195406968 2.95  0.7931649980312939 0.02592934421293083 2.95  0.8218485144464328 0.01755095932049689 2.95  0.8505080634672842 0.009090235007654539 2.95  0.8790871574001908 0.0003613995875277054 2.95  0.9076023447508066 -0.008572998642740692 2.95  0.9360617600175944 -0.01768328503285081 2.95  0.9643989359861183 -0.02716705036944823 2.95  0.9925137450002565 -0.037288883837853 0.02979797979797999  0.992513745000784 -0.03728888383812164 0.05959595959595966  0.9925137450013115 -0.03728888383839029 0.08939393939393965  0.992513745001839 -0.03728888383865891 0.1191919191919193  0.9925137450023664 -0.03728888383892755 0.1489898989898993  0.9925137450028939 -0.0372888838391962 0.178787878787879  0.9925137450034214 -0.03728888383946482 0.2085858585858589  0.9925137450039488 -0.03728888383973347 0.2383838383838386  0.9925137450044763 -0.03728888384000211 0.2681818181818186  0.9925137450050038 -0.03728888384027073 0.2979797979797986  0.9925137450055312 -0.03728888384053938 0.3277777777777782  0.9925137450060587 -0.03728888384080802 0.3575757575757582  0.9925137450065862 -0.03728888384107667 0.3873737373737379  0.9925137450071136 -0.03728888384134529 0.4171717171717179  0.9925137450076411 -0.03728888384161392 0.4469696969696979  0.9925137450081686 -0.03728888384188257 0.4
[...]
<PointData  Vectors="Displacement"> 
<DataArray  type="Float64"  Name="Displacement"  NumberOfComponents="3" format="ascii">0.0000000000000000e+00 0.0000000000000000e+00 0.0000000000000000e+00  0.0000000000000000e+00 0.0000000000000000e+00 0.0000000000000000e+00  3.7080782069784385e-04 9.5167038026276155e-04 6.5662598482446268e-05  4.1424188668679509e-04 1.1440011810762631e-03 -8.5921275910455784e-05  0.0000000000000000e+00 0.0000000000000000e+00 0.0000000000000000e+00  0.0000000000000000e+00 0.0000000000000000e+00 0.0000000000000000e+00  0.0000000000000000e+00 0.0000000000000000e+00 0.0000000000000000e+00  0.0000000000000000e+00 0.0000000000000000e+00 0.0000000000000000e+00  0.0000000000000000e+00 0.0000000000000000e+00 0.0000000000000000e+00  0.0000000000000000e+00 0.0000000000000000e+00 0.0000000000000000e+00  0.0000000000000000e+00 0.0000000000000000e+00 0.0000000000000000e+00  0.0000000000000000e+00 0.0000000000000000e+00 0.0000000000000000e+00  0.0000000000000000e+00 0.0000000000000000e+00 0.0000000000000000e+00  0.0000000000000000e+00 0.0000000000000000e+00 0.0000000000000000e+00  0.0000000000000000e+00 0.0000000000000000e+00 0.0000000000000000e+00  0.0000000000000000e+00 0.0000000000000000e+00 0.0000000000000000e+00  0.0000000000000000e+00 0.0000000000000000e+00 0.0000000000000000e+00  0.0000000000000000e+00 0.0000000000000000e+00 0.0000000000000000e+00  0.0000000000000000e+00 0.0000000000000000e+00 0.0000000000000000e+00  0.0000000000000000e+00 0.0000000000000000e+00 0.0000000000000000e+00  0.0000000000000000e+00 0.0000000000000000e+00 0.0000000000000000e+00  0.0000000000000000e+00 0.0000000000000000e+00 0.0000000000000000e+00  0.0000000000000000e+00 0.0000000000000000e+00 0.0000000000000000e+00  0.0000000000000000e+00 0.0000000000000000e+00 0.0000000000000000e+00  0.0000000000000000e+00 0.0000000000000000e+00 0.0000000000000000e+00  0.0000000000000000e+00 0.0000000000000000e+00 0.0000000000000000e+00  0.0000000000000000e+00 0.0000000000000000e+00 0.0000000000000000e+00  0.0000000000000000e+00 0.0000000000000000e+00 0.0000000000000000e+00  0.0000000000000000e+00 0.0000000000000000e+00 0.0000000000000000e+00  0.0000000000000000e+00 0.0000000000000000e+00 0.0000000000000000e+00  0.0000000000000000e+00 0.0000000000000000e+00 0.0000000000000000e+00  0.0000000000000000e+00 0.0000000000000000e+00 0.0000000000000000e+00  0.0000000000000000e+00 0.0000000000000000e+00 0.0000000000000000e+00  0.0000000000000000e+00 0.0000000000000000e+00 0.0000000000000000e+00  0.0000000000000000e+00 0.0000000000000000e+00 0.0000000000000000e+00  0.0000000000000000e+00 0.0000000000000000e+00 0.0000000000000000e+00  0.0000000000000000e+00 0.0000000000000000e+00 0.0000000000000000e+00  -1.2757405828219542e-06 1.7961383521987826e-07 -1.4610284494500945e-06  -2.0931596756927841e-06 3.1345905948342587e-07 -2.4717498277014182e-06  -2.8961268423756920e-06 4.2180105214685003e-07 -3.3487135797534587e-06  -3.7221432168322480e-06 5.2714462746699202e-07 -4.2117615323888549e-06  -4.5801523896570974e-06 6.4702684472766417e-07 -4.8917478982196221e-06  -5.4569299006712887e-06 8.0038870653270379e-07 -5.4569748040622079e-06  -6.3687417978944037e-06 9.6622509948773221e-07 -6.0029064439490084e-06  -7.3181425141054761e-06 1.1623284627850083e-06 -6.4678831073170378e-06  -8.3017381243988766e-06 1.3788158133733208e-06 -6.8307781589296369e-06  -9.3137447905324368e-06 1.6300490714427165e-06 -7.1203572377347700e-06  -1.0332432386121306e-05 1.9060435497295606e-06 -7.3254043283962859e-06  -1.1365279913941247e-05 2.2464390111165796e-06 -7.4769062160807714e-06  -1.2414264209239626e-05 2.6385929275095995e-06 -7.5101588711497877e-06  -1.3461618285789793e-05 3.0799013038153866e-06 -7.4961493022556612e-06  -1.4497299110913298e-05 3.5664919350066938e-06 -7.3603255396646041e-06  -1.5518892266159988e-05 4.0915597953849128e-06 -7.1492024749734132e-06  -1.6528018362784764e-05 4.6237597916530040e-06 -6.8165177290366597e-06  -1.7508493637355502e-05 5.1452704789858036e-06 -6.4080443576422680e-06  -1.8462909335823908e-05 5.6303035296615680e-06 -5.8824304707139535e-06  -1.9363821780134763e-05 6.0277704257447672e-06 -5.2544965646139804e-06  -2.0273481417274820e-05 6.3855515215949594e-06 -4.5972919128514861e-06  -2.1106238471443819e-05 6.4913763738202133e-06 -3.7389919078405443e-06  -2.1876783064115384e-05 6.4450484409836895e-06 -2.8297751914847458e-06  -2.2625673235732212e-05 6.1730110122828071e-06 -1.7997438434252413e-06  -2.3348378756723095e-05 5.4555928246484674e-06 -6.9801721593543588e-07  -2.4000518201053171e-05 4.2800918975717901e-06 3.9928475308717266e-07  -2.4621994852954957e-05 2.7499370409826982e-06 1.6874385838164127e-06  -2.5224549067763099e-05 9.0202126141177887e-07 2.9936338908678872e-06  -2.5625350804809016e-05 -1.2784339059633727e-06 4.3880708764730884e-06  -2.6044669813303035e-05 -3.7059467053031191e-06 5.7826604333018678e-06  -2.6258319030540421e-05 -6.4093316219188952e-06 7.3620728226508221e-06  -2.6422094900477768e-05 -9.0100889000497127e-06 8.8954037292789736e-06  -2.6292812455779111e-05 -1.1398071863073370e-05 1.0477321965877184e-05  -2.5924753970037409e-05 -1.3580282647862960e-05 1.2103664793451290e-05  -2.5368745451000751e-05 -1.4915578548773349e-05 1.3659545304292551e-05  -2.4582812274707842e-05 -1.5384400800377662e-05 1.4987772909543134e-05  -2.3241756692524530e-05 -1.4693688880683301e-05 1.6650807225692968e-05  -2.1683305879829406e-05 -1.2246962103582345e-05 1.8056303450397535e-05  -1.9572587161165895e-05 -7.8798513710476410e-06 2.0261748419551019e-05  -1.6807338925717586e-05 -1.5939912841163301e-06 2.1932129986236123e-05  -1.3806922101462789e-05 6.4650157314946998e-06 2.3349262544499426e-05  -1.0352035592381468e-05 1.6054989649885075e-05 2.4857804195580516e-05  -6.4056646611323836e-06 2.7174741765633726e-05 2.6127894355851915e-05  -1.9390508242652159e-06 3.9152233096751374e-05 2.7129274809656528e-05  2.2794889891614217e-06 5.2094634212539398e-05 2.8769327496408239e-05  6.6000961387532993e-06 6.4827352647969089e-05 3.0323092044805586e-05  1.0794448812953496e-05 7.7057262854308812e-05 3.1274196371082256e-05  1.4985157836010092e-05 8.7050360785732360e-05 3.2819009511706851e-05  1.8479813632559198e-05 9.3879305764595731e-05 3.4144894006568072e-05  2.1893529731078744e-05 9.8383842494030916e-05 3.5062870106351028e-05  2.4416140102538286e-05 9.7887410996899294e-05 3.6145575069322491e-05  2.5953756960558813e-05 9.1694504808202963e-05 3.7415840134178521e-05  2.6539136573830615e-05 7.8562115799460784e-05 3.8025146472677218e-05  2.6202809984389572e-05 6.1785855845630008e-05 3.9033235935986884e-05  2.5050944476419151e-05 3.7959416075103191e-05 4.0462217829444301e-05  2.3600370048301447e-05 1.1157810125615837e-05 4.1188259249635254e-05  2.1058158159644409e-05 -1.9068344183007657e-05 4.2472289934219627e-05  1.9120675858289368e-05 -5.1135459671785754e-05 4.3692980516195595e-05  1.5885684552089525e-05 -8.4654553985595305e-05 4.4944002731387973e-05  1.3584745360573723e-05 -1.1832625133013843e-04 4.6020559400862224e-05  1.2292235423623696e-05 -1.5092871795937366e-04 4.7265838864620104e-05  9.9550777199471149e-06 -1.8020617450525039e-04 4.7576905382735756e-05  9.0225834936948922e-06 -2.0678757905067207e-04 4.8242150107404327e-05  9.1667300464902218e-06 -2.2924167325203711e-04 5.0271758397594508e-05  9.9288939805637916e-06 -2.4831601703709358e-04 5.1879770296654407e-05  1.1509074908322022e-05 -2.6386110812712433e-04 5.2609328822979259e-05  1.3750413885526229e-05 -2.7686096472488172e-04 5.3429378650978383e-05  1.6002340462241960e-05 -2.8687951334087949e-04 5.3686672409812069e-05  1.8994146705047885e-05 -2.9419248474049761e-04 5.4166835843253568e-05  2.2135534975405454e-05 -2.9960434891998576e-04 5.4524180111618553e-05  2.5900495701041093e-05 -3.0339396742477603e-04 5.5266213832539595e-05  3.0201264731743062e-05 -3.0400009258980682e-04 5.4903346557792154e-05  3.4078912584609146e-05 -3.0141474118674643e-04 5.3578186591384821e-05  3.8923855163457334e-05 -2.9562858989322371e-04 5.4542311938703357e-05  4.5103618875506524e-05 -2.8305787484250603e-04 5.4729266095415963e-05  5.2386146402586563e-05 -2.6703349621831532e-04 5.4675899931199779e-05  5.9071888995882684e-05 -2.4560348235178959e-04 5.4908902741096879e-05  6.8213683256291015e-05 -2.2000569900892825e-04 5.6643590938124402e-05  7.7957927860069863e-05 -1.8675612695903806e-04 5.6496827572132976e-05  8.8166253484062051e-05 -1.5035267801454346e-04 5.7769487187890570e-05  9.9004455699339147e-05 -1.1152201146511975e-04 5.8506518491511504e-05  1.1102193410309361e-04 -6.9246928766009027e-05 5.7980704758553027e-05  1.2320127194971316e-04 -2.4221586883303647e-05 5.8583329204256064e-05  1.3539880657987888e-04 2.3193534410593238e-05 5.9670365689476662e-05  1.4861945650149474e-04 7.2666433309531619e-05 6.0015734789316754e-05  1.6258036929802386e-04 1.2527763419747961e-04 5.9786491149023368e-05  1.7642541182623267e-04 1.8039762480460730e-04 6.0834756947903196e-05  1.9123660501170605e-04 2.3784926710581858e-04 6.0328734708378414e-05  2.0590206222580905e-04 2.9743767782753933e-04 6.0727532949722572e-05  2.2123824828587026e-04 3.5918529725893918e-04 6.1164475421347648e-05  2.3642382523238583e-04 4.2216739305326765e-04 6.1869525148077666e-05  2.5227669444398128e-04 4.8638903513444976e-04 6.2333368122288892e-05  2.6838151459804575e-04 5.5064946254866154e-04 6.2600534999783912e-05  2.8418922585433828e-04 6.1593597860161930e-04 6.3261094795957979e-05  3.0095974055732738e-04 6.8210737940742458e-04 6.3619688605736941e-05  3.1743150377478910e-04 7.4916486960511705e-04 6.4208320195767584e-05  3.3473612882925355e-04 8.1653304823474816e-04 6.4690846353944209e-05  3.5239150995118460e-04 8.8434214186076151e-04 6.5497147622069123e-05  3.6610499284918916e-04 9.5864597966650162e-04 1.4811287783748250e-05  3.6399872362778425e-04 9.6790647865025337e-04 -9.6127659074540281e-06  3.6220359807974926e-04 9.7699635356927037e-04 -2.5063937805398852e-05  3.6121978298253354e-04 9.8593336808878648e-04 -3.7248028203590132e-05  3.6109164319288097e-04 9.9598173924551219e-04 -4.7272420214755900e-05  3.6125256770790266e-04 1.0061520752998995e-03 -5.6252164117665160e-05  3.6190244870572041e-04 1.0164808388545767e-03 -6.3729875784720040e-05  3.6298828534021106e-04 1.0268791270812386e-03 -7.0808345518207094e-05  3.6411961540669244e-04 1.0371449996964763e-03 -7.6727027860519948e-05  3.6574265111532746e-04 1.0469656515901132e-03 -8.2051784962564517e-05  3.6792982521205491e-04 1.0565296183229910e-03 -8.6964318529231707e-05  3.6987983610571709e-04 1.0655822445284271e-03 -9.1589007958690029e-05  3.7213626438636460e-04 1.0743156400285141e-03 -9.5997990421646209e-05  3.7443890205074703e-04 1.0824832637969881e-03 -9.9984653577895157e-05  3.7678229977494384e-04 1.0899677296377882e-03 -1.0387253735666254e-04  3.7931472104233463e-04 1.0970968564213296e-03 -1.0728952751035469e-04  3.8143410108880475e-04 1.1029779238626222e-03 -1.1018871075828983e-04  3.8405447280019466e-04 1.1090209283784230e-03 -1.1282429515262053e-04  3.8592651624659970e-04 1.1135304779784174e-03 -1.1477258132317585e-04  3.8807286394300551e-04 1.1171689101539099e-03 -1.1600558742122872e-04  3.9000791016296485e-04 1.1195624253751018e-03 -1.1642084655160610e-04  3.9150210731908570e-04 1.1209098972558792e-03 -1.1612548019791170e-04  3.9274090256066307e-04 1.1210448481436210e-03 -1.1535682183079174e-04  3.9339398942190017e-04 1.1204489005946906e-03 -1.1369190383974368e-04  3.9397818082297022e-04 1.1192215415234753e-03 -1.1175185585441324e-04  3.9442511409643082e-04 1.1176492556888031e-03 -1.0962779481742845e-04  3.9462719288110127e-04 1.1160431676422084e-03 -1.0705027017401543e-04  3.9495633307611022e-04 1.1149021995182121e-03 -1.0405762165156448e-04  3.9557857461858264e-04 1.1143511946475194e-03 -1.0116962539625451e-04  3.9643201340791746e-04 1.1154390606224875e-03 -9.8281165342942493e-05  3.9950772093042821e-04 1.1196262406075229e-03 -9.5290015547814817e-05  4.0416662332716741e-04 1.1267409758266085e-03 -9.2488953257831083e-05  4.1227150740237725e-04 1.1381167571234807e-03 -9.0069381449703619e-05  -2.2474228893312282e-06 4.9903026721076531e-07 2.3193748829817772e-06  -3.1938230430124811e-06 5.4791930662492494e-07 3.6646007070595466e-06  -4.2282858664168690e-06 6.4262928114212188e-07 4.9378400538721092e-06  -5.0482466324336080e-06 6.6838458702133774e-07 5.8619501142860100e-06  -5.8526078558438675e-06 6.9568173385400687e-07 6.8004067960395588e-06  -6.6449391349005718e-06 7.4898751086776287e-07 7.5184616374156854e-06  -7.4581699651455061e-06 8.1377501590707397e-07 8.2068238980710195e-06  -8.2793482262541115e-06 8.5842594696540877e-07 8.7634547454480953e-06  -9.1225573062934178e-06 9.0488586709378242e-07 9.2075501665221200e-06  -9.9896441218461219e-06 9.9095954744444901e-07 9.5390466314042261e-06  -1.0847304958237746e-05 1.0549073056045672e-06 9.7669851165011712e-06  -1.1744894481833564e-05 1.1168769794608762e-06 9.8951668554306437e-06  -1.2666615377956614e-05 1.1931091502690708e-06 9.9292377241453015e-06  -1.3578865545990430e-05 1.2597178340540347e-06 9.8325633886954457e-06  -1.4419283955903826e-05 1.3527077285098218e-06 9.5501181458334147e-06  -1.5282015790862023e-05 1.5707480686050320e-06 9.1515138547596471e-06  -1.6135786434963528e-05 1.7938927699768905e-06 8.7060756199504558e-06  -1.6904699297239201e-05 2.0391340788579743e-06 8.1101059615634645e-06  -1.7673691506865565e-05 2.5085488640687905e-06 7.4137336446153571e-06  -1.8225540094211043e-05 3.1459876663833171e-06 6.4844539238708839e-06  -1.8753535067087302e-05 3.8685921503723754e-06 5.3837551454050540e-06  -1.9276612920207304e-05 4.6095580930394169e-06 4.2361638405140282e-06  -1.9601823052151140e-05 5.5462747168513595e-06 2.8919041642839463e-06  -1.9811583220336426e-05 6.6205702841731267e-06 1.4035640834568949e-06  -1.9853725077573606e-05 7.7922295695153625e-06 -2.7418554975053911e-07  -1.9917843659443192e-05 8.7081637658983052e-06 -1.9366999432367965e-06  -1.9985392849400335e-05 9.1326226410970555e-06 -3.9826248673210893e-06  -2.0065863176709622e-05 8.8568512595705218e-06 -6.2050650538792738e-06  -2.0049300713708092e-05 7.9684785869727191e-06 -8.2056931094433577e-06  -1.9993131361323877e-05 6.8366517483713545e-06 -1.0267381592536641e-05  -1.9921957537227210e-05 5.1800114767631463e-06 -1.2512892175012736e-05  -1.9755280831012345e-05 3.3266004625072442e-06 -1.4720078651465865e-05  -1.9778753676368835e-05 -3.0367238050235922e-07 -1.7303894939774658e-05  -1.9782203234033926e-05 -4.5963867686780516e-06 -1.9407800208699547e-05  -1.9731650337337637e-05 -9.2724599570402189e-06 -2.1601580256124056e-05  -1.9947491630143263e-05 -1.4874713851397366e-05 -2.3721990354301617e-05  -2.0683614707222622e-05 -2.3038523343858161e-05 -2.5739264327251597e-05  -2.1023029952739116e-05 -3.0599514715477098e-05 -2.7646229635567248e-05  -2.1417927790288863e-05 -3.7964958256278111e-05 -2.9599990111996892e-05  -2.1191866027708575e-05 -4.4084353862102780e-05 -3.1249489894477407e-05  -2.1524663040881462e-05 -4.9556030023233456e-05 -3.1814644256669332e-05  -2.0514919859918278e-05 -5.1136509597026835e-05 -3.2191246916925122e-05  -1.8255988022221818e-05 -4.7595971860599851e-05 -3.3014132510645983e-05  -1.4426925863463427e-05 -3.7353896062196407e-05 -3.3839658264358460e-05  -1.0249992748354691e-05 -2.4269693727701495e-05 -3.3793884192043265e-05  -4.9063260753823767e-06 -4.9936835406026311e-06 -3.4845531268342174e-05  8.1898681483912901e-07 1.6327771126947793e-05 -3.6939188040211067e-05  8.8632373118581185e-06 4.3070389302598783e-05 -3.8062173951352653e-05  1.6130041014904068e-05 7.0523464380279241e-05 -3.9044959874350110e-05  2.4220726135701798e-05 1.0257315444742273e-04 -4.1751654174849775e-05  3.4356566154088808e-05 1.3662692500212553e-04 -4.5395265167082792e-05  4.2776609233196896e-05 1.6755116584093552e-04 -4.8399953646712836e-05  5.3458316418358978e-05 1.9758327924845358e-04 -5.6366002637737124e-05  5.9172146914290604e-05 2.1083012694684568e-04 -6.0155042469329332e-05  6.1593456118844074e-05 2.0515643845239807e-04 -6.4545131700601054e-05  6.3548047818883858e-05 1.9766565176459734e-04 -6.9538824774601247e-05  6.1478291913639972e-05 1.6712861184165306e-04 -7.6567062975208667e-05  5.4692151343714766e-05 1.1672438093137110e-04 -8.1956597901652694e-05  4.7919640170079104e-05 5.9002893833594273e-05 -8.5828664843378612e-05  4.1204657787592611e-05 -4.1544496459729071e-06 -8.8847822114654102e-05  2.6397582092377583e-05 -9.1441728809861847e-05 -9.1549052180613157e-05  8.4529586188578045e-06 -1.8814654786020578e-04 -9.3722334643267640e-05  -1.5846116794759600e-06 -2.6647271594616733e-04 -9.3216354266901645e-05  -1.2122667271353205e-05 -3.4106602149420974e-04 -9.1644131668810829e-05  -2.3152841574526929e-05 -4.1190214649378587e-04 -8.9094129902529391e-05  -2.9598469765922034e-05 -4.5868678202787923e-04 -8.5160360859322354e-05  -2.6451449194757045e-05 -4.7010095882081922e-04 -8.0395336025835797e-05  -2.4159790832098419e-05 -4.7785012868178912e-04 -7.5670015311234701e-05  -1.2264872424160842e-05 -4.4936664687761477e-04 -7.0650730049847733e-05  4.1690830438120370e-06 -3.9068124319677287e-04 -6.8892231410155216e-05  1.9916107695860724e-05 -3.3153351796710916e-04 -6.8066918445264674e-05  3.5949451474579846e-05 -2.7074842193053225e-04 -6.8010014429903650e-05  5.1036919946201218e-05 -2.1510635120649096e-04 -6.9157855029053489e-05  6.6016100455468406e-05 -1.6106621262798455e-04 -7.0324539546628851e-05  7.7554527996065418e-05 -1.1974898323346652e-04 -7.2991747566679763e-05  8.1646783626223099e-05 -1.1072609042365897e-04 -7.5207404287002950e-05  8.2644154070264105e-05 -1.1583085062576609e-04 -7.5934404753611007e-05  8.3861616180686460e-05 -1.1598809673019853e-04 -7.7274947587898223e-05  8.5743326678592051e-05 -1.1264161698065090e-04 -7.7731679675521639e-05  9.5452005695205924e-05 -8.3938480259990761e-05 -7.4201699135310574e-05  1.0940514183940304e-04 -2.8541522907057054e-05 -7.2231137821100378e-05  1.2277484855020818e-04 2.5954858309180178e-05 -7.0297514554589822e-05  1.4153064331642144e-04 9.9402425997805643e-05 -6.9635381308416557e-05  1.6087727234786675e-04 1.7652091557969189e-04 -7.1116945383156946e-05  1.7731863119968037e-04 2.3874427699400680e-04 -7.2688365320441791e-05  1.8882271166708434e-04 2.8777332604738539e-04 -7.4120924383403510e-05  2.0103849050189445e-04 3.3537917899268191e-04 -7.4998830769466054e-05  2.1454467519623936e-04 3.8703239978385879e-04 -7.4900493520738468e-05  2.2759700537160633e-04 4.4080205207486668e-04 -7.4029783109302521e-05  2.4398911222631248e-04 5.0521417268989378e-04 -7.3582243606640300e-05  2.6182870120639907e-04 5.7940894950882346e-04 -7.3917629263748114e-05  2.8062528777192402e-04 6.5343136965378100e-04 -7.4551867901857206e-05  2.9665572999826257e-04 7.2060002189862035e-04 -7.5627120359451680e-05  3.1302356170261850e-04 7.8492795011840131e-04 -7.6831736523096767e-05  3.3033471800544790e-04 8.5267113995357590e-04 -7.8061502959243681e-05  3.4836010696444688e-04 9.2260424960753586e-04 -7.9705327148137597e-05  3.6785115728705782e-04 9.9642856865323837e-04 -8.1592967195499202e-05  3.8870058192315058e-04 1.0682035699172731e-03 -8.3951723436663679e-05  0.0000000000000000e+00 0.0000000000000000e+00 0.0000000000000000e+00  0.0000000000000000e+00 0.0000000000000000e+00 0.0000000000000000e+00  0.0000000000000000e+00 0.0000000000000000e+00 0.0000000000000000e+00  0.0000000000000000e+00 0.0000000000000000e+00 0.0000000000000000e+00  0.0000000000000000e+00 0.0000000000000000e+00 0.0000000000000000e+00  0.0000000000000000e+00 0.0000000000000000e+00 0.0000000000000000e+00  0.0000000000000000e+00 0.0000000000000000e+00 0.0000000000000000e+00  0.0000000000000000e+00 0.0000000000000000e+00 0.0000000000000000e+00  0.0000000000000000e+00 0.0000000000000000e+00 0.0000000000000000e+00  0.0000000000000000e+00 0.0000000000000000e+00 0.0000000000000000e+00  0.0000000000000000e+00 0.0000000000000000e+00 0.0000000000000000e+00  0.0000000000000000e+00 0.0000000000000000e+00 0.0000000000000000e+00  0.0000000000000000e+00 0.0000000000000000e+00 0.0000000000000000e+00  0.0000000000000000e+00 0.0000000000000000e