<?xml version="1.0"?>
<VTKFile type="UnstructuredGrid"  version="0.1"  >
<UnstructuredGrid>
<Piece  NumberOfPoints="10957" NumberOfCells="41672">
<Points>
<DataArray  type="Float64"  NumberOfComponents="3"  format="ascii">0.9925137449997291 -0.03728888383758438 0  0.007586802157453682 0.1349677647109762 0  0.007586802157453682 0.1349677647109762 2.95  0.9925137450519488 -0.03728888386417941 2.95  0.9643989096501694 -0.02716704134803519 0  0.9360617343536817 -0.01768327665856045 0  0.9076023198175265 -0.00857299075128265 0  0.8790871331840997 0.0003614069448361137 0  0.8505080400473725 0.009090242106019955 0  0.8218484917797876 0.0175509659925942 0  0.7931649761035906 0.02592935040050181 0  0.764418986146959 0.03409177790458878 0  0.7355999411752842 0.04199208040343261 0  0.706731175369029 0.04970752442632946 0  0.6778150466362781 0.05724422177386088 0  0.6488235004287045 0.06448534614328195 0  0.6197762269986674 0.07150054499793095 0  0.5906691301945188 0.07826269316251469 0  0.5614959755933637 0.08473383882735666 0  0.5322596382677409 0.09091321471851833 0  0.5029835339452652 0.09690037660788667 0  0.4736699718296479 0.1027023189330479 0  0.4443098233029065 0.1082645407993157 0  0.4149010073711484 0.1135628320994786 0  0.3854783433069935 0.1187834305436249 0  0.3560099120866912 0.1237401372022409 0  0.3265194297032009 0.1285612560788899 0  0.2969990933156311 0.1331978653889243 0  0.2674324755030887 0.1375295585331712 0  0.2378244583146815 0.1415687425006859 0  0.2081641615162468 0.1452020213412918 0  0.178471661952439 0.1485620625312685 0  0.1487339230235372 0.1514955168237853 0  0.1189428323115893 0.1538263087404927 0  0.08910021994414483 0.1553171437333857 0  0.05922253747548557 0.1554056076484339 0  0.02955586583595391 0.1522076925616009 0  0.007586802157453682 0.1349677647109762 0.02979797979797998  0.007586802157453682 0.1349677647109762 0.05959595959595964  0.007586802157453682 0.1349677647109762 0.08939393939393964  0.007586802157453682 0.1349677647109762 0.1191919191919193  0.007586802157453682 0.1349677647109762 0.1489898989898993  0.007586802157453682 0.1349677647109762 0.1787878787878789  0.007586802157453682 0.1349677647109762 0.2085858585858589  0.007586802157453682 0.1349677647109762 0.2383838383838386  0.007586802157453682 0.1349677647109762 0.2681818181818186  0.007586802157453682 0.1349677647109762 0.2979797979797985  0.007586802157453682 0.1349677647109762 0.3277777777777782  0.007586802157453682 0.1349677647109762 0.3575757575757582  0.007586802157453682 0.1349677647109762 0.3873737373737379  0.007586802157453682 0.1349677647109762 0.4171717171717177  0.007586802157453682 0.1349677647109762 0.4469696969696978  0.007586802157453682 0.1349677647109762 0.4767676767676775  0.007586802157453682 0.1349677647109762 0.5065656565656572  0.007586802157453682 0.1349677647109762 0.5363636363636372  0.007586802157453682 0.1349677647109762 0.5661616161616171  0.007586802157453682 0.1349677647109762 0.5959595959595968  0.007586802157453682 0.1349677647109762 0.6257575757575764  0.007586802157453682 0.1349677647109762 0.6555555555555564  0.007586802157453682 0.1349677647109762 0.685353535353536  0.007586802157453682 0.1349677647109762 0.7151515151515156  0.007586802157453682 0.1349677647109762 0.7449494949494957  0.007586802157453682 0.1349677647109762 0.7747474747474754  0.007586802157453682 0.1349677647109762 0.8045454545454551  0.007586802157453682 0.1349677647109762 0.8343434343434349  0.007586802157453682 0.1349677647109762 0.864141414141415  0.007586802157453682 0.1349677647109762 0.8939393939393944  0.007586802157453682 0.1349677647109762 0.9237373737373743  0.007586802157453682 0.1349677647109762 0.9535353535353542  0.007586802157453682 0.1349677647109762 0.9833333333333343  0.007586802157453682 0.1349677647109762 1.013131313131314  0.007586802157453682 0.1349677647109762 1.042929292929294  0.007586802157453682 0.1349677647109762 1.072727272727274  0.007586802157453682 0.1349677647109762 1.102525252525254  0.007586802157453682 0.1349677647109762 1.132323232323233  0.007586802157453682 0.1349677647109762 1.162121212121214  0.007586802157453682 0.1349677647109762 1.191919191919194  0.007586802157453682 0.1349677647109762 1.221717171717173  0.007586802157453682 0.1349677647109762 1.251515151515154  0.007586802157453682 0.1349677647109762 1.281313131313133  0.007586802157453682 0.1349677647109762 1.311111111111113  0.007586802157453682 0.1349677647109762 1.340909090909093  0.007586802157453682 0.1349677647109762 1.370707070707073  0.007586802157453682 0.1349677647109762 1.400505050505053  0.007586802157453682 0.1349677647109762 1.430303030303033  0.007586802157453682 0.1349677647109762 1.460101010101013  0.007586802157453682 0.1349677647109762 1.489898989898993  0.007586802157453682 0.1349677647109762 1.519696969696973  0.007586802157453682 0.1349677647109762 1.549494949494953  0.007586802157453682 0.1349677647109762 1.579292929292933  0.007586802157453682 0.1349677647109762 1.609090909090912  0.007586802157453682 0.1349677647109762 1.638888888888892  0.007586802157453682 0.1349677647109762 1.668686868686872  0.007586802157453682 0.1349677647109762 1.698484848484852  0.007586802157453682 0.1349677647109762 1.728282828282832  0.007586802157453682 0.1349677647109762 1.758080808080812  0.007586802157453682 0.1349677647109762 1.787878787878792  0.007586802157453682 0.1349677647109762 1.817676767676772  0.007586802157453682 0.1349677647109762 1.847474747474752  0.007586802157453682 0.1349677647109762 1.877272727272732  0.007586802157453682 0.1349677647109762 1.907070707070711  0.007586802157453682 0.1349677647109762 1.936868686868692  0.007586802157453682 0.1349677647109762 1.966666666666672  0.007586802157453682 0.1349677647109762 1.996464646464651  0.007586802157453682 0.1349677647109762 2.02626262626263  0.007586802157453682 0.1349677647109762 2.05606060606061  0.007586802157453682 0.1349677647109762 2.08585858585859  0.007586802157453682 0.1349677647109762 2.115656565656569  0.007586802157453682 0.1349677647109762 2.145454545454549  0.007586802157453682 0.1349677647109762 2.175252525252528  0.007586802157453682 0.1349677647109762 2.205050505050509  0.007586802157453682 0.1349677647109762 2.234848484848488  0.007586802157453682 0.1349677647109762 2.264646464646468  0.007586802157453682 0.1349677647109762 2.294444444444448  0.007586802157453682 0.1349677647109762 2.324242424242427  0.007586802157453682 0.1349677647109762 2.354040404040407  0.007586802157453682 0.1349677647109762 2.383838383838387  0.007586802157453682 0.1349677647109762 2.413636363636366  0.007586802157453682 0.1349677647109762 2.443434343434345  0.007586802157453682 0.1349677647109762 2.473232323232325  0.007586802157453682 0.1349677647109762 2.503030303030305  0.007586802157453682 0.1349677647109762 2.532828282828285  0.007586802157453682 0.1349677647109762 2.562626262626264  0.007586802157453682 0.1349677647109762 2.592424242424244  0.007586802157453682 0.1349677647109762 2.622222222222224  0.007586802157453682 0.1349677647109762 2.652020202020203  0.007586802157453682 0.1349677647109762 2.681818181818182  0.007586802157453682 0.1349677647109762 2.711616161616162  0.007586802157453682 0.1349677647109762 2.741414141414142  0.007586802157453682 0.1349677647109762 2.771212121212121  0.007586802157453682 0.1349677647109762 2.801010101010102  0.007586802157453682 0.1349677647109762 2.830808080808081  0.007586802157453682 0.1349677647109762 2.860606060606061  0.007586802157453682 0.1349677647109762 2.89040404040404  0.007586802157453682 0.1349677647109762 2.92020202020202  0.02955586665970645 0.152207692743969 2.95  0.0592225391622407 0.1554056076997827 2.95  0.08910022247431289 0.1553171436543912 2.95  0.1189428356790401 0.1538263085106716 2.95  0.1487339272258054 0.1514955164485778 2.95  0.1784716669857977 0.1485620619846548 2.95  0.2081641673828153 0.1452020206530984 2.95  0.2378244650101828 0.1415687416400932 2.95  0.2674324830262811 0.1375295574952611 2.95  0.2969991016635551 0.1331978641562543 2.95  0.3265194388709149 0.1285612546257254 2.95  0.3560099220724205 0.1237401355215495 2.95  0.3854783541254482 0.1187834287283932 2.95  0.4149010190000992 0.113562830018489 2.95  0.4443098357391194 0.1082645384431056 2.95  0.4736699850933383 0.1027023164111393 2.95  0.5029835480169053 0.09690037382073331 2.95  0.5322596531280808 0.09091321157617849 2.95  0.5614959912517894 0.08473383538307885 2.95  0.590669146638386 0.07826268936393518 2.95  0.6197762442228643 0.07150054083737761 2.95  0.6488235184809702 0.06448534181312304 2.95  0.677815065462649 0.05724421705657579 2.95  0.7067311949546904 0.04970751927410625 2.95  0.7355999615241583 0.04199207483830233 2.95  0.7644190072646493 0.03409177195406968 2.95  0.7931649980312939 0.02592934421293083 2.95  0.8218485144464328 0.01755095932049689 2.95  0.8505080634672842 0.009090235007654539 2.95  0.8790871574001908 0.0003613995875277054 2.95  0.9076023447508066 -0.008572998642740692 2.95  0.9360617600175944 -0.01768328503285081 2.95  0.9643989359861183 -0.02716705036944823 2.95  0.9925137450002565 -0.037288883837853 0.02979797979797999  0.992513745000784 -0.03728888383812164 0.05959595959595966  0.9925137450013115 -0.03728888383839029 0.08939393939393965  0.992513745001839 -0.03728888383865891 0.1191919191919193  0.9925137450023664 -0.03728888383892755 0.1489898989898993  0.9925137450028939 -0.0372888838391962 0.178787878787879  0.9925137450034214 -0.03728888383946482 0.2085858585858589  0.9925137450039488 -0.03728888383973347 0.2383838383838386  0.9925137450044763 -0.03728888384000211 0.2681818181818186  0.9925137450050038 -0.03728888384027073 0.2979797979797986  0.9925137450055312 -0.03728888384053938 0.3277777777777782  0.9925137450060587 -0.03728888384080802 0.3575757575757582  0.9925137450065862 -0.03728888384107667 0.3873737373737379  0.9925137450071136 -0.03728888384134529 0.4171717171717179  0.9925137450076411 -0.03728888384161392 0.4469696969696979  0.9925137450081686 -0.03728888384188257 0.4
[...]
<PointData  Vectors="Displacement"> 
<DataArray  type="Float64"  Name="Displacement"  NumberOfComponents="3" format="ascii">0.0000000000000000e+00 0.0000000000000000e+00 0.0000000000000000e+00  0.0000000000000000e+00 0.0000000000000000e+00 0.0000000000000000e+00  1.9249954468277973e-04 5.3559558348309315e-04 4.8681059343027139e-05  3.1582922165145273e-04 1.0959275751809077e-03 -5.9075075193433348e-05  0.0000000000000000e+00 0.0000000000000000e+00 0.0000000000000000e+00  0.0000000000000000e+00 0.0000000000000000e+00 0.0000000000000000e+00  0.0000000000000000e+00 0.0000000000000000e+00 0.0000000000000000e+00  0.0000000000000000e+00 0.0000000000000000e+00 0.0000000000000000e+00  0.0000000000000000e+00 0.0000000000000000e+00 0.0000000000000000e+00  0.0000000000000000e+00 0.0000000000000000e+00 0.0000000000000000e+00  0.0000000000000000e+00 0.0000000000000000e+00 0.0000000000000000e+00  0.0000000000000000e+00 0.0000000000000000e+00 0.0000000000000000e+00  0.0000000000000000e+00 0.0000000000000000e+00 0.0000000000000000e+00  0.0000000000000000e+00 0.0000000000000000e+00 0.0000000000000000e+00  0.0000000000000000e+00 0.0000000000000000e+00 0.0000000000000000e+00  0.0000000000000000e+00 0.0000000000000000e+00 0.0000000000000000e+00  0.0000000000000000e+00 0.0000000000000000e+00 0.0000000000000000e+00  0.0000000000000000e+00 0.0000000000000000e+00 0.0000000000000000e+00  0.0000000000000000e+00 0.0000000000000000e+00 0.0000000000000000e+00  0.0000000000000000e+00 0.0000000000000000e+00 0.0000000000000000e+00  0.0000000000000000e+00 0.0000000000000000e+00 0.0000000000000000e+00  0.0000000000000000e+00 0.0000000000000000e+00 0.0000000000000000e+00  0.0000000000000000e+00 0.0000000000000000e+00 0.0000000000000000e+00  0.0000000000000000e+00 0.0000000000000000e+00 0.0000000000000000e+00  0.0000000000000000e+00 0.0000000000000000e+00 0.0000000000000000e+00  0.0000000000000000e+00 0.0000000000000000e+00 0.0000000000000000e+00  0.0000000000000000e+00 0.0000000000000000e+00 0.0000000000000000e+00  0.0000000000000000e+00 0.0000000000000000e+00 0.0000000000000000e+00  0.0000000000000000e+00 0.0000000000000000e+00 0.0000000000000000e+00  0.0000000000000000e+00 0.0000000000000000e+00 0.0000000000000000e+00  0.0000000000000000e+00 0.0000000000000000e+00 0.0000000000000000e+00  0.0000000000000000e+00 0.0000000000000000e+00 0.0000000000000000e+00  0.0000000000000000e+00 0.0000000000000000e+00 0.0000000000000000e+00  0.0000000000000000e+00 0.0000000000000000e+00 0.0000000000000000e+00  0.0000000000000000e+00 0.0000000000000000e+00 0.0000000000000000e+00  0.0000000000000000e+00 0.0000000000000000e+00 0.0000000000000000e+00  0.0000000000000000e+00 0.0000000000000000e+00 0.0000000000000000e+00  -9.7396982887075516e-09 1.4747040314755184e-09 -1.2788749853165868e-08  -1.4662298045511007e-08 2.3370096503865616e-09 -2.3107302307171916e-08  -1.9054386827832716e-08 3.2292944032527756e-09 -3.3718393130818323e-08  -2.3717882633559075e-08 4.1882360370507737e-09 -4.5109545534281399e-08  -2.8793711639686177e-08 5.1119447426663535e-09 -5.6028383679854991e-08  -3.4692428283694695e-08 6.2121913590772884e-09 -6.7405740625174039e-08  -4.1453058968146740e-08 7.4385606981060577e-09 -7.9068694948537134e-08  -4.9225776707084253e-08 8.9828634255291987e-09 -9.1688976332822380e-08  -5.8440339649551965e-08 1.0564062494163221e-08 -1.0477205380378543e-07  -6.8853637633031829e-08 1.2486648306376327e-08 -1.1841078223988543e-07  -8.0700666208122383e-08 1.4608992019437448e-08 -1.3337600382109537e-07  -9.4457080791367658e-08 1.6776143503582693e-08 -1.4892559299738325e-07  -1.1044453452916485e-07 1.9236567094417267e-08 -1.6492264232598444e-07  -1.2787122680850607e-07 2.2432339044433463e-08 -1.8200974604518037e-07  -1.4823114783541534e-07 2.6113317567973918e-08 -1.9983042876188848e-07  -1.7096702292978145e-07 2.9672921803903335e-08 -2.1840064762268427e-07  -1.9648473209901557e-07 3.3957329048850521e-08 -2.3808189120733257e-07  -2.2593477057305858e-07 3.8962701359644608e-08 -2.5761738613737969e-07  -2.5827729099521667e-07 4.4437995379651449e-08 -2.7854878093166317e-07  -2.9453707323474138e-07 5.0697177749747872e-08 -2.9947275192008149e-07  -3.3483313832213387e-07 5.7559723214598115e-08 -3.2068324714106668e-07  -3.7964087167391933e-07 6.5857188758137090e-08 -3.4290748940117221e-07  -4.3022560358180188e-07 7.5874891527638963e-08 -3.6470219276626570e-07  -4.8515617865458663e-07 8.6275395177611758e-08 -3.8452247893862664e-07  -5.4655744993705519e-07 9.8952975312352744e-08 -4.0581827773277086e-07  -6.1366900743756109e-07 1.1399228727799194e-07 -4.2463607720423116e-07  -6.8770113152263931e-07 1.3108367230069835e-07 -4.4106998284688356e-07  -7.6929687923261483e-07 1.4961199099175723e-07 -4.5660855795971969e-07  -8.5736197754075491e-07 1.7243126749178350e-07 -4.6721334760881857e-07  -9.5385393461048678e-07 1.9901365553734598e-07 -4.7453818404579472e-07  -1.0580096154041217e-06 2.2870286709125668e-07 -4.7673448016513427e-07  -1.1712194318426724e-06 2.6067506613853359e-07 -4.7280628934378748e-07  -1.2927988844780901e-06 2.9518440105045844e-07 -4.6193599545436853e-07  -1.4252142377972363e-06 3.3036745883162780e-07 -4.4024545467144229e-07  -1.5690291076187939e-06 3.6601775433891551e-07 -4.1003657429909840e-07  -1.7185129580195857e-06 3.9837486370340051e-07 -3.6322690084851323e-07  -1.8823814379223351e-06 4.3140754734547114e-07 -3.0929269317593839e-07  -2.0532953561088433e-06 4.5540712874623035e-07 -2.3221992674800108e-07  -2.2393897131455228e-06 4.7417993347072569e-07 -1.4739473968805660e-07  -2.4367779255890707e-06 4.7560553197593294e-07 -3.3254079004468565e-08  -2.6423405849909764e-06 4.6308199546190922e-07 1.0199827360766244e-07  -2.8621337154163875e-06 4.2999552653849758e-07 2.6117919545450846e-07  -3.0902093864025059e-06 3.7165023192973302e-07 4.7092345862513258e-07  -3.3371752559476428e-06 2.9145394522943491e-07 6.9019664555700853e-07  -3.5750050963779740e-06 1.8069652898082535e-07 9.6038230773033852e-07  -3.8182362868986908e-06 5.6029713986953040e-08 1.2602724140528327e-06  -4.0612662884184606e-06 -8.9887028134507123e-08 1.6128071675265386e-06  -4.3017367032902592e-06 -2.5304020624012775e-07 2.0101337615585162e-06  -4.5369126350708042e-06 -3.9026845691213434e-07 2.4268563316324978e-06  -4.7515243557894750e-06 -5.2593912938041306e-07 2.9763497128759990e-06  -4.9186772132459905e-06 -6.0141889464996513e-07 3.5402750669235689e-06  -5.0617038163045461e-06 -5.6798569975889695e-07 4.1612566746862107e-06  -5.1257268653699258e-06 -3.5085549019892548e-07 4.8810572059434459e-06  -5.1187809930759238e-06 -1.0972230794446561e-08 5.6428319001456140e-06  -5.0176652071036835e-06 6.9045075572788853e-07 6.4815220909252641e-06  -4.8357002403207681e-06 1.6018201562039585e-06 7.3744118240266025e-06  -4.4730544522517763e-06 2.8245228537449083e-06 8.4121120556922196e-06  -4.0620802689023802e-06 4.2662350589156018e-06 9.4509399713813747e-06  -3.4151951823411747e-06 6.1100455882113268e-06 1.0531545959520480e-05  -2.6769895613246191e-06 8.2722202538138460e-06 1.1792635874682376e-05  -1.8753325319066753e-06 1.0733282929124013e-05 1.3086636228014096e-05  -6.8130553069337354e-07 1.3127718134391114e-05 1.4551480769161461e-05  5.1138068684350274e-07 1.5470981425137701e-05 1.6043456532266522e-05  1.6800708863900507e-06 1.7265192580098229e-05 1.7348638649086520e-05  2.9156166565477071e-06 1.8382284642257353e-05 1.8600942190539880e-05  4.1023377990292431e-06 1.8452139440999561e-05 2.0038535892099417e-05  5.1372750059137374e-06 1.7387497553741526e-05 2.1358440011175154e-05  6.2127227754458535e-06 1.4513090220993226e-05 2.3094902602151569e-05  7.1214557484352863e-06 9.4435536564797350e-06 2.4529678690071423e-05  7.7394446992764347e-06 2.4682069770861133e-06 2.5968117321976688e-05  8.3120328157871218e-06 -6.6854126837004987e-06 2.7351970652473470e-05  8.3210545217985754e-06 -1.8223102095835704e-05 2.9081428855477031e-05  7.9656228086990980e-06 -3.2234982150644325e-05 3.1138815339660444e-05  7.9655952144361163e-06 -4.8772317034370659e-05 3.2108361176961865e-05  7.7563200785112707e-06 -6.6274219024381784e-05 3.2932385999694463e-05  7.4468808632787843e-06 -8.3669497194375976e-05 3.3499706489071799e-05  6.8246063459827830e-06 -1.0063806195223109e-04 3.4443780996509925e-05  7.7251183778641481e-06 -1.1672340879964747e-04 3.5652009166550816e-05  8.1844952096960883e-06 -1.2759681345334985e-04 3.5660431791062026e-05  1.0326624589494160e-05 -1.3448463526118037e-04 3.7680462040120572e-05  1.3173764915185527e-05 -1.3674787506819558e-04 3.8432399400317961e-05  1.6984807091896288e-05 -1.3145144788359998e-04 3.6579725361246948e-05  2.2241551640176405e-05 -1.1871029283594165e-04 3.7220314511126791e-05  2.7862291394710456e-05 -9.8379833367752263e-05 3.8842776982111251e-05  3.5443647578925291e-05 -7.2359747817289161e-05 3.8899139031798418e-05  4.4345090114139698e-05 -3.9579678289672694e-05 3.8241247421064047e-05  5.2908836579217117e-05 -3.1051342573976178e-06 3.9644041410950138e-05  6.2737477153894256e-05 3.5566346119880564e-05 3.9378076508141295e-05  7.2267073353501758e-05 7.5650586000882187e-05 4.0248140542471180e-05  8.2350002501448697e-05 1.1659859201314147e-04 4.1137445571783499e-05  9.2468928161712564e-05 1.5772963579839931e-04 4.2311644522406083e-05  1.0306887320642111e-04 1.9977005314285553e-04 4.3271094580206629e-05  1.1419742442018737e-04 2.4249016396399968e-04 4.3994301395175282e-05  1.2560866690192090e-04 2.8690874411072058e-04 4.5525341158198665e-05  1.3810660924384993e-04 3.3374630728607652e-04 4.6149306251264631e-05  1.5068780486305090e-04 3.8308813139012308e-04 4.7235983514718056e-05  1.6419907488334043e-04 4.3365710226470923e-04 4.7753577401163938e-05  1.7796356365173423e-04 4.8488830163824069e-04 4.8516490126298035e-05  1.9324279180461926e-04 5.3589378307334994e-04 1.0373856700223142e-05  1.9222337711752736e-04 5.3598264035875675e-04 -8.5271914348654452e-06  1.9017465530557235e-04 5.3562350098754251e-04 -2.0349180700052921e-05  1.8828575805019711e-04 5.3535483611917101e-04 -2.9700844123229889e-05  1.8661195816758913e-04 5.3646192783325154e-04 -3.7495672457923946e-05  1.8483951340030348e-04 5.3831684401108514e-04 -4.4327478402169460e-05  1.8299964487871492e-04 5.4125512382894171e-04 -5.0112495014603314e-05  1.8135724778595014e-04 5.4539395373819359e-04 -5.5513599752246756e-05  1.7928733399608996e-04 5.5083339601864423e-04 -6.0174101794545134e-05  1.7791990968750023e-04 5.5749652158227812e-04 -6.4468826062492383e-05  1.7719263079879886e-04 5.6558981672158177e-04 -6.8654108364117413e-05  1.7673958233726554e-04 5.7465201084812572e-04 -7.2214312212089390e-05  1.7613570519600032e-04 5.8458931172361756e-04 -7.5928473110737838e-05  1.7622531568689458e-04 5.9581518576980717e-04 -7.9285086484122324e-05  1.7678742825778191e-04 6.0805682511265848e-04 -8.2464692268402665e-05  1.7804167206145880e-04 6.2137207239219752e-04 -8.5686077022693798e-05  1.7893018525896786e-04 6.3493481070817190e-04 -8.7851316821541573e-05  1.8133392681713573e-04 6.4988341878728705e-04 -8.9922117658139603e-05  1.8306686123246182e-04 6.6510432780642981e-04 -9.1440940351044189e-05  1.8602454851146890e-04 6.8139557285587700e-04 -9.2433577281025243e-05  1.8904255051848472e-04 6.9764286547589153e-04 -9.3025166993003381e-05  1.9264736896860887e-04 7.1492950078683312e-04 -9.2525203589916965e-05  1.9621527369860340e-04 7.3270803194779987e-04 -9.2275666571723335e-05  2.0074478063380848e-04 7.5200329032008590e-04 -9.1118550089743278e-05  2.0588605651986880e-04 7.7273659112127714e-04 -9.0322847462886887e-05  2.1150337053879478e-04 7.9439267641454470e-04 -8.9227281813432932e-05  2.1815522132874541e-04 8.1674829158732087e-04 -8.7247102657421843e-05  2.2557461195565537e-04 8.4088973239294191e-04 -8.4473194666030273e-05  2.3384377156784915e-04 8.6774906733979912e-04 -8.1886786946180700e-05  2.4230856409723512e-04 8.9863291311714441e-04 -7.9060896595307078e-05  2.5577856505170287e-04 9.3835510202548364e-04 -7.5587298858906596e-05  2.7388184779645561e-04 9.8912851636898873e-04 -7.1460083951997152e-05  2.9964629805750097e-04 1.0510180603722614e-03 -6.6825847775964418e-05  -2.1923272573926541e-08 5.2139013963303625e-09 2.4906034324055875e-08  -3.0121991782462213e-08 6.1353228127255553e-09 4.1385035792481310e-08  -3.8617778779558320e-08 7.3948225538384207e-09 5.7718224860763239e-08  -4.5283051183689294e-08 8.4265939149667210e-09 7.2915532849655360e-08  -5.2256675809344416e-08 9.4427909732551664e-09 8.9485634495858733e-08  -5.9446600317923773e-08 1.1152649641821246e-08 1.0497495040943672e-07  -6.7853775464962588e-08 1.3313852452828836e-08 1.2293643833231864e-07  -7.6945622403735089e-08 1.5620965451088776e-08 1.4161634773467980e-07  -8.7613076474352376e-08 1.8352903076590977e-08 1.6131186760263912e-07  -9.9721836327925892e-08 2.0813874042970468e-08 1.8216273354572244e-07  -1.1336773643163355e-07 2.3609844104669417e-08 2.0330014331219307e-07  -1.2839628118440404e-07 2.6623763003684105e-08 2.2450457538586838e-07  -1.4495740720197076e-07 3.0063770123711858e-08 2.4478555466309771e-07  -1.6386563308811624e-07 3.4862306531146988e-08 2.6963978609767146e-07  -1.8590622895276675e-07 4.0337889012419225e-08 2.9740480215332620e-07  -2.1104884940927730e-07 4.5199492615133284e-08 3.2270410228832282e-07  -2.3698121329563377e-07 5.0388884919837538e-08 3.4836382347418871e-07  -2.6531808585159103e-07 5.6397315559240510e-08 3.7780525494430860e-07  -2.9823622748558517e-07 6.1911619537183636e-08 4.0213588488998310e-07  -3.3550901073678068e-07 6.9417341447403291e-08 4.3171097687320080e-07  -3.7668139524677711e-07 7.7285517887709272e-08 4.5910776507600626e-07  -4.1973675644356549e-07 8.5723401891681687e-08 4.8510727894029451e-07  -4.6709208555421035e-07 9.6089145379551802e-08 5.1477227515308981e-07  -5.1909340187533859e-07 1.0600239316500118e-07 5.4092870284903599e-07  -5.7664182603718847e-07 1.1671199648382358e-07 5.6527338638672224e-07  -6.3919313160596104e-07 1.2674542994156427e-07 5.8420448440875811e-07  -7.0647099890589704e-07 1.3619770877536870e-07 6.0203373986505083e-07  -7.7779024852380484e-07 1.4496095694060616e-07 6.1378077296767879e-07  -8.6077725537003508e-07 1.5753162156682803e-07 6.1230702718465564e-07  -9.4743762652552141e-07 1.7113532094331251e-07 6.0594241797536746e-07  -1.0394520716177725e-06 1.8596523110134334e-07 5.9109329164504043e-07  -1.1359817967967823e-06 2.0176429454606484e-07 5.6936258742571222e-07  -1.2352059191809201e-06 2.2206569943388306e-07 5.3500844262942191e-07  -1.3446224866294379e-06 2.4771074833160038e-07 4.8202100222830223e-07  -1.4586431128297632e-06 2.7475809973326487e-07 4.2109241648652047e-07  -1.5752099864786513e-06 3.0878849818355305e-07 3.4016923111021293e-07  -1.6837540823040560e-06 3.5826547866255446e-07 2.2952247674960107e-07  -1.8093206212519109e-06 4.0820371696992181e-07 8.1283259878753193e-08  -1.9295223292627059e-06 4.5798701059265232e-07 -9.1580957577072331e-08  -2.0622577143195413e-06 5.0321183279326747e-07 -2.8713903303644068e-07  -2.1894917578574159e-06 5.3684704713372011e-07 -5.2955305612360323e-07  -2.3240946460950915e-06 5.6382599680634876e-07 -8.0103289647399428e-07  -2.4414441903146207e-06 5.9096156826876743e-07 -1.1370301958456705e-06  -2.5645272800537629e-06 5.8730986746217376e-07 -1.5382158025698546e-06  -2.7049459892359368e-06 5.5243167349191514e-07 -1.9583823512905406e-06  -2.8073744515235589e-06 4.7741373508292911e-07 -2.4780984097126508e-06  -2.9343489790870580e-06 3.9116663560796626e-07 -3.0121216359900339e-06  -3.0428706718657034e-06 2.2240571758350492e-07 -3.6399551255370710e-06  -3.1463991517462437e-06 2.1733517788896652e-08 -4.3317081359085063e-06  -3.2358788157756329e-06 -2.7223372582516468e-07 -5.0923511536464131e-06  -3.3128199876414229e-06 -6.6287395169127734e-07 -5.9515216991644868e-06  -3.3928812186668339e-06 -1.0454071274865115e-06 -6.8241606382028275e-06  -3.4962881980438222e-06 -1.7422977083874348e-06 -7.8190170329724251e-06  -3.5337713579073986e-06 -2.4438472871328469e-06 -8.9594400978970547e-06  -3.5027839911885752e-06 -2.9655737565347113e-06 -1.0093741295570436e-05  -3.4582582933351025e-06 -3.4930656389561288e-06 -1.1255581868481574e-05  -3.3209282843043300e-06 -4.0073975626513940e-06 -1.2571946312784095e-05  -3.0454567634799766e-06 -4.1034114407470038e-06 -1.3928006465486037e-05  -2.6855288423269803e-06 -3.9636460701582343e-06 -1.5343707809447543e-05  -2.2993490466947419e-06 -3.7045670991682968e-06 -1.6841896218422842e-05  -1.7116428147597713e-06 -2.9743761117273926e-06 -1.8423528090780930e-05  -4.5705301252810890e-07 -3.8126456747201230e-07 -2.0176454524689501e-05  1.1082681481194483e-06 3.1633728481120326e-06 -2.2059632434053552e-05  2.6787853734697715e-06 6.9478052819962088e-06 -2.3965717841644222e-05  4.4375545578199024e-06 1.1274840726613799e-05 -2.6206920314859171e-05  7.3560534624485968e-06 1.8218342376257297e-05 -2.8714088649922740e-05  1.0250437754768685e-05 2.5075849525316012e-05 -3.1235828020331765e-05  1.3133184156892417e-05 3.2056731335095706e-05 -3.3927155338392244e-05  1.6324441415430851e-05 3.8304533081882739e-05 -3.7543560054143682e-05  1.8714009504164556e-05 3.8581809485482539e-05 -4.0689982993072163e-05  2.1440892892523002e-05 3.8346304488637769e-05 -4.3964975020914282e-05  2.3942457592126092e-05 3.7433941350033736e-05 -4.7313204790507603e-05  2.5548109488166407e-05 3.0283634554990745e-05 -5.0571045686798278e-05  2.7372835298510517e-05 2.2132939099062820e-05 -5.3522849379013812e-05  2.7710759842091120e-05 7.0702207566114587e-06 -5.7464278724619405e-05  2.4925567154520264e-05 -2.3312537322131721e-05 -6.0650171731603991e-05  1.9557123575400298e-05 -6.4842622424575883e-05 -6.2019048832910131e-05  1.3576812215679591e-05 -1.0912251100668425e-04 -6.2834104511430612e-05  7.4542882077158530e-06 -1.5454673798638880e-04 -6.3134795331188599e-05  5.6091434313190478e-07 -1.9642018703662547e-04 -6.0922205955942680e-05  -4.3121904517005549e-06 -2.2662322654986894e-04 -5.7349646853306164e-05  -9.8672424548693042e-06 -2.5772490580501598e-04 -5.3374803177451658e-05  -8.4894980808799220e-06 -2.5791650440540060e-04 -5.0016377990759973e-05  9.8543093643112295e-07 -2.2273789797719993e-04 -4.1445820720605708e-05  1.9739024993987774e-05 -1.3902461353683697e-04 -3.6254072727187461e-05  4.5607969890347105e-05 -3.3732595404412610e-05 -3.1350791543112972e-05  6.7430572638987155e-05 7.5671069864639099e-05 -3.0701031141643588e-05  9.3208673491982540e-05 1.9188406151973686e-04 -2.9041203188949707e-05  1.1963283074425070e-04 3.0889532780883460e-04 -3.2649447487319726e-05  1.4397481821922596e-04 4.1614150407365773e-04 -3.7364225159375286e-05  1.5676338581012379e-04 4.8386599156434354e-04 -3.8820331059271086e-05  1.6710099645528216e-04 5.3164819316840241e-04 -4.5812863047644385e-05  1.7546870648209114e-04 5.6913531001882909e-04 -4.9287772110909873e-05  1.8471841584381810e-04 6.1290183227321303e-04 -5.0720058062178663e-05  1.9761678664665216e-04 6.6586352578858795e-04 -5.1181784388904744e-05  2.2039687632067080e-04 7.5594288072624281e-04 -5.4963898977124406e-05  2.5013132672069906e-04 8.7263779028794609e-04 -5.4616716294381976e-05  2.8131269447271884e-04 9.8497139088532656e-04 -5.6134859901856292e-05  0.0000000000000000e+00 0.0000000000000000e+00 0.0000000000000000e+00  0.0000000000000000e+00 0.0000000000000000e+00 0.0000000000000000e+00  0.0000000000000000e+00 0.0000000000000000e+00 0.0000000000000000e+00  0.0000000000000000e+00 0.0000000000000000e+00 0.0000000000000000e+00  0.0000000000000000e+00 0.0000000000000000e+00 0.0000000000000000e+00  0.0000000000000000e+00 0.0000000000000000e+00 0.0000000000000000e+00  0.0000000000000000e+00 0.0000000000000000e+00 0.0000000000000000e+00  0.0000000000000000e+00 0.0000000000000000e+00 0.0000000000000000e+00  0.0000000000000000e+00 0.0000000000000000e+00 0.0000000000000000e+00  0.0000000000000000e+00 0.0000000000000000e+00 0.0000000000000000e+00  0.0000000000000000e+00 0.0000000000000000e+00 0.0000000000000000e+00  0.0000000000000000e+00 0.0000000000000000e+00 0.0000000000000000e+00  0.0000000000000000e+00 0.0000000000000000e+00 0.0000000000000000e+00  0.0000000000000000e+00 0.000000000000