<?xml version="1.0"?>
<VTKFile type="UnstructuredGrid"  version="0.1"  >
<UnstructuredGrid>
<Piece  NumberOfPoints="10957" NumberOfCells="41672">
<Points>
<DataArray  type="Float64"  NumberOfComponents="3"  format="ascii">0.9925137449997291 -0.03728888383758438 0  0.007586802157453682 0.1349677647109762 0  0.007586802157453682 0.1349677647109762 2.95  0.9925137450519488 -0.03728888386417941 2.95  0.9643989096501694 -0.02716704134803519 0  0.9360617343536817 -0.01768327665856045 0  0.9076023198175265 -0.00857299075128265 0  0.8790871331840997 0.0003614069448361137 0  0.8505080400473725 0.009090242106019955 0  0.8218484917797876 0.0175509659925942 0  0.7931649761035906 0.02592935040050181 0  0.764418986146959 0.03409177790458878 0  0.7355999411752842 0.04199208040343261 0  0.706731175369029 0.04970752442632946 0  0.6778150466362781 0.05724422177386088 0  0.6488235004287045 0.06448534614328195 0  0.6197762269986674 0.07150054499793095 0  0.5906691301945188 0.07826269316251469 0  0.5614959755933637 0.08473383882735666 0  0.5322596382677409 0.09091321471851833 0  0.5029835339452652 0.09690037660788667 0  0.4736699718296479 0.1027023189330479 0  0.4443098233029065 0.1082645407993157 0  0.4149010073711484 0.1135628320994786 0  0.3854783433069935 0.1187834305436249 0  0.3560099120866912 0.1237401372022409 0  0.3265194297032009 0.1285612560788899 0  0.2969990933156311 0.1331978653889243 0  0.2674324755030887 0.1375295585331712 0  0.2378244583146815 0.1415687425006859 0  0.2081641615162468 0.1452020213412918 0  0.178471661952439 0.1485620625312685 0  0.1487339230235372 0.1514955168237853 0  0.1189428323115893 0.1538263087404927 0  0.08910021994414483 0.1553171437333857 0  0.05922253747548557 0.1554056076484339 0  0.02955586583595391 0.1522076925616009 0  0.007586802157453682 0.1349677647109762 0.02979797979797998  0.007586802157453682 0.1349677647109762 0.05959595959595964  0.007586802157453682 0.1349677647109762 0.08939393939393964  0.007586802157453682 0.1349677647109762 0.1191919191919193  0.007586802157453682 0.1349677647109762 0.1489898989898993  0.007586802157453682 0.1349677647109762 0.1787878787878789  0.007586802157453682 0.1349677647109762 0.2085858585858589  0.007586802157453682 0.1349677647109762 0.2383838383838386  0.007586802157453682 0.1349677647109762 0.2681818181818186  0.007586802157453682 0.1349677647109762 0.2979797979797985  0.007586802157453682 0.1349677647109762 0.3277777777777782  0.007586802157453682 0.1349677647109762 0.3575757575757582  0.007586802157453682 0.1349677647109762 0.3873737373737379  0.007586802157453682 0.1349677647109762 0.4171717171717177  0.007586802157453682 0.1349677647109762 0.4469696969696978  0.007586802157453682 0.1349677647109762 0.4767676767676775  0.007586802157453682 0.1349677647109762 0.5065656565656572  0.007586802157453682 0.1349677647109762 0.5363636363636372  0.007586802157453682 0.1349677647109762 0.5661616161616171  0.007586802157453682 0.1349677647109762 0.5959595959595968  0.007586802157453682 0.1349677647109762 0.6257575757575764  0.007586802157453682 0.1349677647109762 0.6555555555555564  0.007586802157453682 0.1349677647109762 0.685353535353536  0.007586802157453682 0.1349677647109762 0.7151515151515156  0.007586802157453682 0.1349677647109762 0.7449494949494957  0.007586802157453682 0.1349677647109762 0.7747474747474754  0.007586802157453682 0.1349677647109762 0.8045454545454551  0.007586802157453682 0.1349677647109762 0.8343434343434349  0.007586802157453682 0.1349677647109762 0.864141414141415  0.007586802157453682 0.1349677647109762 0.8939393939393944  0.007586802157453682 0.1349677647109762 0.9237373737373743  0.007586802157453682 0.1349677647109762 0.9535353535353542  0.007586802157453682 0.1349677647109762 0.9833333333333343  0.007586802157453682 0.1349677647109762 1.013131313131314  0.007586802157453682 0.1349677647109762 1.042929292929294  0.007586802157453682 0.1349677647109762 1.072727272727274  0.007586802157453682 0.1349677647109762 1.102525252525254  0.007586802157453682 0.1349677647109762 1.132323232323233  0.007586802157453682 0.1349677647109762 1.162121212121214  0.007586802157453682 0.1349677647109762 1.191919191919194  0.007586802157453682 0.1349677647109762 1.221717171717173  0.007586802157453682 0.1349677647109762 1.251515151515154  0.007586802157453682 0.1349677647109762 1.281313131313133  0.007586802157453682 0.1349677647109762 1.311111111111113  0.007586802157453682 0.1349677647109762 1.340909090909093  0.007586802157453682 0.1349677647109762 1.370707070707073  0.007586802157453682 0.1349677647109762 1.400505050505053  0.007586802157453682 0.1349677647109762 1.430303030303033  0.007586802157453682 0.1349677647109762 1.460101010101013  0.007586802157453682 0.1349677647109762 1.489898989898993  0.007586802157453682 0.1349677647109762 1.519696969696973  0.007586802157453682 0.1349677647109762 1.549494949494953  0.007586802157453682 0.1349677647109762 1.579292929292933  0.007586802157453682 0.1349677647109762 1.609090909090912  0.007586802157453682 0.1349677647109762 1.638888888888892  0.007586802157453682 0.1349677647109762 1.668686868686872  0.007586802157453682 0.1349677647109762 1.698484848484852  0.007586802157453682 0.1349677647109762 1.728282828282832  0.007586802157453682 0.1349677647109762 1.758080808080812  0.007586802157453682 0.1349677647109762 1.787878787878792  0.007586802157453682 0.1349677647109762 1.817676767676772  0.007586802157453682 0.1349677647109762 1.847474747474752  0.007586802157453682 0.1349677647109762 1.877272727272732  0.007586802157453682 0.1349677647109762 1.907070707070711  0.007586802157453682 0.1349677647109762 1.936868686868692  0.007586802157453682 0.1349677647109762 1.966666666666672  0.007586802157453682 0.1349677647109762 1.996464646464651  0.007586802157453682 0.1349677647109762 2.02626262626263  0.007586802157453682 0.1349677647109762 2.05606060606061  0.007586802157453682 0.1349677647109762 2.08585858585859  0.007586802157453682 0.1349677647109762 2.115656565656569  0.007586802157453682 0.1349677647109762 2.145454545454549  0.007586802157453682 0.1349677647109762 2.175252525252528  0.007586802157453682 0.1349677647109762 2.205050505050509  0.007586802157453682 0.1349677647109762 2.234848484848488  0.007586802157453682 0.1349677647109762 2.264646464646468  0.007586802157453682 0.1349677647109762 2.294444444444448  0.007586802157453682 0.1349677647109762 2.324242424242427  0.007586802157453682 0.1349677647109762 2.354040404040407  0.007586802157453682 0.1349677647109762 2.383838383838387  0.007586802157453682 0.1349677647109762 2.413636363636366  0.007586802157453682 0.1349677647109762 2.443434343434345  0.007586802157453682 0.1349677647109762 2.473232323232325  0.007586802157453682 0.1349677647109762 2.503030303030305  0.007586802157453682 0.1349677647109762 2.532828282828285  0.007586802157453682 0.1349677647109762 2.562626262626264  0.007586802157453682 0.1349677647109762 2.592424242424244  0.007586802157453682 0.1349677647109762 2.622222222222224  0.007586802157453682 0.1349677647109762 2.652020202020203  0.007586802157453682 0.1349677647109762 2.681818181818182  0.007586802157453682 0.1349677647109762 2.711616161616162  0.007586802157453682 0.1349677647109762 2.741414141414142  0.007586802157453682 0.1349677647109762 2.771212121212121  0.007586802157453682 0.1349677647109762 2.801010101010102  0.007586802157453682 0.1349677647109762 2.830808080808081  0.007586802157453682 0.1349677647109762 2.860606060606061  0.007586802157453682 0.1349677647109762 2.89040404040404  0.007586802157453682 0.1349677647109762 2.92020202020202  0.02955586665970645 0.152207692743969 2.95  0.0592225391622407 0.1554056076997827 2.95  0.08910022247431289 0.1553171436543912 2.95  0.1189428356790401 0.1538263085106716 2.95  0.1487339272258054 0.1514955164485778 2.95  0.1784716669857977 0.1485620619846548 2.95  0.2081641673828153 0.1452020206530984 2.95  0.2378244650101828 0.1415687416400932 2.95  0.2674324830262811 0.1375295574952611 2.95  0.2969991016635551 0.1331978641562543 2.95  0.3265194388709149 0.1285612546257254 2.95  0.3560099220724205 0.1237401355215495 2.95  0.3854783541254482 0.1187834287283932 2.95  0.4149010190000992 0.113562830018489 2.95  0.4443098357391194 0.1082645384431056 2.95  0.4736699850933383 0.1027023164111393 2.95  0.5029835480169053 0.09690037382073331 2.95  0.5322596531280808 0.09091321157617849 2.95  0.5614959912517894 0.08473383538307885 2.95  0.590669146638386 0.07826268936393518 2.95  0.6197762442228643 0.07150054083737761 2.95  0.6488235184809702 0.06448534181312304 2.95  0.677815065462649 0.05724421705657579 2.95  0.7067311949546904 0.04970751927410625 2.95  0.7355999615241583 0.04199207483830233 2.95  0.7644190072646493 0.03409177195406968 2.95  0.7931649980312939 0.02592934421293083 2.95  0.8218485144464328 0.01755095932049689 2.95  0.8505080634672842 0.009090235007654539 2.95  0.8790871574001908 0.0003613995875277054 2.95  0.9076023447508066 -0.008572998642740692 2.95  0.9360617600175944 -0.01768328503285081 2.95  0.9643989359861183 -0.02716705036944823 2.95  0.9925137450002565 -0.037288883837853 0.02979797979797999  0.992513745000784 -0.03728888383812164 0.05959595959595966  0.9925137450013115 -0.03728888383839029 0.08939393939393965  0.992513745001839 -0.03728888383865891 0.1191919191919193  0.9925137450023664 -0.03728888383892755 0.1489898989898993  0.9925137450028939 -0.0372888838391962 0.178787878787879  0.9925137450034214 -0.03728888383946482 0.2085858585858589  0.9925137450039488 -0.03728888383973347 0.2383838383838386  0.9925137450044763 -0.03728888384000211 0.2681818181818186  0.9925137450050038 -0.03728888384027073 0.2979797979797986  0.9925137450055312 -0.03728888384053938 0.3277777777777782  0.9925137450060587 -0.03728888384080802 0.3575757575757582  0.9925137450065862 -0.03728888384107667 0.3873737373737379  0.9925137450071136 -0.03728888384134529 0.4171717171717179  0.9925137450076411 -0.03728888384161392 0.4469696969696979  0.9925137450081686 -0.03728888384188257 0.4
[...]
<PointData  Vectors="Displacement"> 
<DataArray  type="Float64"  Name="Displacement"  NumberOfComponents="3" format="ascii">0.0000000000000000e+00 0.0000000000000000e+00 0.0000000000000000e+00  0.0000000000000000e+00 0.0000000000000000e+00 0.0000000000000000e+00  2.2441780659933664e-04 5.9399088039608814e-04 5.0447273366868930e-05  3.1872270647376096e-04 1.0338994967188111e-03 -6.0837490819693279e-05  0.0000000000000000e+00 0.0000000000000000e+00 0.0000000000000000e+00  0.0000000000000000e+00 0.0000000000000000e+00 0.0000000000000000e+00  0.0000000000000000e+00 0.0000000000000000e+00 0.0000000000000000e+00  0.0000000000000000e+00 0.0000000000000000e+00 0.0000000000000000e+00  0.0000000000000000e+00 0.0000000000000000e+00 0.0000000000000000e+00  0.0000000000000000e+00 0.0000000000000000e+00 0.0000000000000000e+00  0.0000000000000000e+00 0.0000000000000000e+00 0.0000000000000000e+00  0.0000000000000000e+00 0.0000000000000000e+00 0.0000000000000000e+00  0.0000000000000000e+00 0.0000000000000000e+00 0.0000000000000000e+00  0.0000000000000000e+00 0.0000000000000000e+00 0.0000000000000000e+00  0.0000000000000000e+00 0.0000000000000000e+00 0.0000000000000000e+00  0.0000000000000000e+00 0.0000000000000000e+00 0.0000000000000000e+00  0.0000000000000000e+00 0.0000000000000000e+00 0.0000000000000000e+00  0.0000000000000000e+00 0.0000000000000000e+00 0.0000000000000000e+00  0.0000000000000000e+00 0.0000000000000000e+00 0.0000000000000000e+00  0.0000000000000000e+00 0.0000000000000000e+00 0.0000000000000000e+00  0.0000000000000000e+00 0.0000000000000000e+00 0.0000000000000000e+00  0.0000000000000000e+00 0.0000000000000000e+00 0.0000000000000000e+00  0.0000000000000000e+00 0.0000000000000000e+00 0.0000000000000000e+00  0.0000000000000000e+00 0.0000000000000000e+00 0.0000000000000000e+00  0.0000000000000000e+00 0.0000000000000000e+00 0.0000000000000000e+00  0.0000000000000000e+00 0.0000000000000000e+00 0.0000000000000000e+00  0.0000000000000000e+00 0.0000000000000000e+00 0.0000000000000000e+00  0.0000000000000000e+00 0.0000000000000000e+00 0.0000000000000000e+00  0.0000000000000000e+00 0.0000000000000000e+00 0.0000000000000000e+00  0.0000000000000000e+00 0.0000000000000000e+00 0.0000000000000000e+00  0.0000000000000000e+00 0.0000000000000000e+00 0.0000000000000000e+00  0.0000000000000000e+00 0.0000000000000000e+00 0.0000000000000000e+00  0.0000000000000000e+00 0.0000000000000000e+00 0.0000000000000000e+00  0.0000000000000000e+00 0.0000000000000000e+00 0.0000000000000000e+00  0.0000000000000000e+00 0.0000000000000000e+00 0.0000000000000000e+00  0.0000000000000000e+00 0.0000000000000000e+00 0.0000000000000000e+00  0.0000000000000000e+00 0.0000000000000000e+00 0.0000000000000000e+00  -4.0090889968528229e-08 6.0906691185286655e-09 -5.2596031684777648e-08  -6.0217837070306297e-08 9.6229828817029360e-09 -9.4976907633222202e-08  -7.7974723178603352e-08 1.3237053166386141e-08 -1.3838372956170971e-07  -9.6606472798632535e-08 1.7010682713764744e-08 -1.8467899948896701e-07  -1.1677083025026663e-07 2.0648387443336457e-08 -2.2879236198272126e-07  -1.3998548086010048e-07 2.4952696205532056e-08 -2.7432586426345724e-07  -1.6640338651178290e-07 2.9677811281539202e-08 -3.2052731197064037e-07  -1.9657181911736250e-07 3.5511974447851643e-08 -3.6992626704885568e-07  -2.3198400228762878e-07 4.1383174744710424e-08 -4.2041138244215170e-07  -2.7172752707156204e-07 4.8382552999381134e-08 -4.7239942394356468e-07  -3.1652251819448041e-07 5.5980473614806733e-08 -5.2860000344041342e-07  -3.6789451828730545e-07 6.3665355758781417e-08 -5.8585712832258582e-07  -4.2683006121433526e-07 7.2362866830019220e-08 -6.4379253610298079e-07  -4.9036950719277308e-07 8.3731645201341817e-08 -7.0463034314375097e-07  -5.6344896405494166e-07 9.6600578598825252e-08 -7.6688295492397881e-07  -6.4400787610980552e-07 1.0927812621194621e-07 -8.3079347309018983e-07  -7.3306021019173638e-07 1.2466820051884839e-07 -8.9695052706804422e-07  -8.3399985122277175e-07 1.4238243402296129e-07 -9.6111184463897029e-07  -9.4320730101537411e-07 1.6216671000161622e-07 -1.0287080478596714e-06  -1.0634652353103781e-06 1.8494036920443387e-07 -1.0945706932361947e-06  -1.1949134105990684e-06 2.1044118865642636e-07 -1.1598708698275260e-06  -1.3381996172365756e-06 2.4072633921931093e-07 -1.2264352523094421e-06  -1.4967573845686228e-06 2.7681123743279206e-07 -1.2896711234942262e-06  -1.6659388080971629e-06 3.1565090056991668e-07 -1.3453963477606318e-06  -1.8507496255886966e-06 3.6207812722338176e-07 -1.4025481877567345e-06  -2.0489222100515380e-06 4.1588955352531328e-07 -1.4512898843006034e-06  -2.2625021830575639e-06 4.7522190559893813e-07 -1.4901898036696226e-06  -2.4926438590808633e-06 5.3774887302691277e-07 -1.5247922146135667e-06  -2.7363155082872046e-06 6.1003237242919540e-07 -1.5436498021837705e-06  -2.9972832786667773e-06 6.8925762393584639e-07 -1.5508668763456097e-06  -3.2733103201510419e-06 7.6977142492780243e-07 -1.5432654908333291e-06  -3.5661074435197369e-06 8.4756281423488779e-07 -1.5159218061211340e-06  -3.8739906345999757e-06 9.2226113758175408e-07 -1.4702703905136220e-06  -4.2012553130570933e-06 9.8863266478778792e-07 -1.3927704497438310e-06  -4.5465431600349268e-06 1.0352274949538015e-06 -1.2961725664313193e-06  -4.9000712527471112e-06 1.0569239537507820e-06 -1.1505549220596578e-06  -5.2760558593450925e-06 1.0576816670194084e-06 -9.9536764433221223e-07  -5.6597499730530803e-06 1.0106655587251092e-06 -7.7916683273833062e-07  -6.0576685126844125e-06 9.2596811994589935e-07 -5.5293720391917558e-07  -6.4706812891011823e-06 7.8191101550383205e-07 -2.5615800378320176e-07  -6.8832799424976370e-06 5.9048544385301769e-07 8.6152361029934967e-08  -7.3020528664453969e-06 3.4859964390626110e-07 4.7288346360727519e-07  -7.7144476778317231e-06 5.3090372076154582e-08 9.7128161602728329e-07  -8.1373286228180854e-06 -2.6105105682143873e-07 1.4524549904335575e-06  -8.5108529469884547e-06 -6.0172185430077671e-07 2.0482209725443487e-06  -8.8453608914909494e-06 -9.1271105745959229e-07 2.6885107841951411e-06  -9.1246770215471575e-06 -1.1935366880615263e-06 3.4394473181495665e-06  -9.3402106160467845e-06 -1.3270602618459000e-06 4.2389677215228680e-06  -9.4675051489363806e-06 -1.2520142934512514e-06 5.0490330767238316e-06  -9.5057325408000457e-06 -1.0336452909960433e-06 6.0993041705682031e-06  -9.3744251271047354e-06 -4.2825928933820412e-07 7.1219353385417314e-06  -9.0851231279467797e-06 6.5391496517408864e-07 8.2314244278946678e-06  -8.5922567811321191e-06 2.3376022891254600e-06 9.4580379353232057e-06  -7.8991803905099908e-06 4.4090139410708493e-06 1.0711806949299534e-05  -6.9466774577344553e-06 7.2827294643535243e-06 1.2046130781007325e-05  -5.8605980676971142e-06 1.0475667105150121e-05 1.3440215690291116e-05  -4.4472634231094313e-06 1.4077271788477404e-05 1.4907163874620887e-05  -2.9629050844121381e-06 1.7974790436356624e-05 1.6321750240512752e-05  -1.0772747632787351e-06 2.1931801579988174e-05 1.7910740637628443e-05  7.9573661042905563e-07 2.5791675786742203e-05 1.9450091312453714e-05  2.5258796374992153e-06 2.9125036018932848e-05 2.0964163268741271e-05  4.7745207082143323e-06 3.1046303577599020e-05 2.2975127902157923e-05  6.6896118275333530e-06 3.1672740463023766e-05 2.4639304668367553e-05  8.3895511976634233e-06 2.9785490695962179e-05 2.5514254565421446e-05  9.8233714407007669e-06 2.5610785042830859e-05 2.6433314107192187e-05  1.0771366988889260e-05 1.8475567985998907e-05 2.7678897163840599e-05  1.1289805337978701e-05 8.5782705241534543e-06 2.8739207786214447e-05  1.1516582849015507e-05 -4.7088536301576511e-06 3.0438303295953896e-05  1.1577092534307818e-05 -2.1278823924305910e-05 3.1592151154764078e-05  1.1009960769637648e-05 -4.0032855979914898e-05 3.2680390127950357e-05  1.0655511870467970e-05 -6.0738520812153556e-05 3.3892589200060974e-05  9.7917820493681286e-06 -8.2401038153967140e-05 3.4843586575469998e-05  8.3969624308816458e-06 -1.0427374866405852e-04 3.5297334406695197e-05  7.9304078641923494e-06 -1.2612609869758462e-04 3.6149291494334511e-05  8.1067798605254851e-06 -1.4347813742290178e-04 3.6391809415759364e-05  9.0831703317952934e-06 -1.5793465894619967e-04 3.6320003156209822e-05  9.3687785295562105e-06 -1.6748976506095030e-04 3.6703327762966342e-05  1.2558119977352747e-05 -1.7258067480172630e-04 3.8599735092231722e-05  1.6117772121537109e-05 -1.6781475769598513e-04 3.8215040770595957e-05  2.0879574824456258e-05 -1.5779438354241828e-04 4.0061551314097546e-05  2.6500843562669340e-05 -1.4312811134251880e-04 4.0912953748588424e-05  3.3615465843349609e-05 -1.2209162410467799e-04 3.9763438895058791e-05  4.1198782323273607e-05 -9.6194011601713386e-05 4.0509473186741737e-05  4.8887886085864778e-05 -6.6778574801282137e-05 4.1988674111692640e-05  5.7736169950964879e-05 -3.5496573087514903e-05 4.2680846556902383e-05  6.6959886315022481e-05 -2.1968462983846054e-06 4.3038001047468444e-05  7.6532990112505403e-05 3.2079912784140653e-05 4.4431463763763369e-05  8.6389471842593686e-05 6.7827428033326149e-05 4.4532352746043136e-05  9.6248795874358066e-05 1.0474703526294800e-04 4.5247263111899580e-05  1.0725845901941758e-04 1.4400368033200232e-04 4.6067352052818943e-05  1.1841109980751440e-04 1.8578168468280624e-04 4.7132403926363754e-05  1.3030447457628878e-04 2.3179627471826600e-04 4.7368004533751885e-05  1.4277722253229621e-04 2.7989043163631906e-04 4.7229378453369403e-05  1.5507705397236593e-04 3.2965729993240760e-04 4.7853386111214816e-05  1.6798739786888793e-04 3.8087021308865697e-04 4.7902076861816333e-05  1.8069480762693653e-04 4.3313521215092358e-04 4.8538072607303852e-05  1.9435475747687874e-04 4.8600143001727386e-04 4.9180047728619383e-05  2.0888327761536975e-04 5.4002612772026057e-04 5.0203370431069696e-05  2.2201031896113002e-04 5.9814983942945506e-04 9.7878480484067939e-06  2.2010637811438870e-04 6.0374259108708747e-04 -1.0130390657565175e-05  2.1790283001636625e-04 6.0923162328674774e-04 -2.2378043342872661e-05  2.1655817068457319e-04 6.1502755264250162e-04 -3.1948185399992559e-05  2.1600904077323491e-04 6.2216203985729899e-04 -4.0208401947185461e-05  2.1580911614040840e-04 6.2995806918689614e-04 -4.7749926114746035e-05  2.1557295401566749e-04 6.3806925434927808e-04 -5.4358839783081315e-05  2.1549987487880242e-04 6.4691180309051175e-04 -6.0621568587264654e-05  2.1485513538925543e-04 6.5640282576172261e-04 -6.6057700147828001e-05  2.1463551265557936e-04 6.6675165509101891e-04 -7.0815153440555203e-05  2.1505034248057097e-04 6.7826386224084819e-04 -7.5485864966894604e-05  2.1571420439058666e-04 6.9026150858136155e-04 -7.9255070972533798e-05  2.1665253304243082e-04 7.0261353796871161e-04 -8.2910693823869686e-05  2.1820922268240406e-04 7.1511574306185282e-04 -8.6031429903248759e-05  2.2025895004663292e-04 7.2755525331909352e-04 -8.8674518006508359e-05  2.2287928832424766e-04 7.3980734960955006e-04 -9.1062305901774970e-05  2.2509645295336165e-04 7.5095778497578686e-04 -9.2543018035209812e-05  2.2838733957953477e-04 7.6286858753221698e-04 -9.4005244948712022e-05  2.3071035198370013e-04 7.7347734558864630e-04 -9.4755327150953568e-05  2.3374310352546670e-04 7.8436024390506737e-04 -9.5384585589567702e-05  2.3650242659286751e-04 7.9453208463547531e-04 -9.5534405740123639e-05  2.3934034283062949e-04 8.0498737097881566e-04 -9.5012084720503105e-05  2.4197763538473947e-04 8.1520094259744668e-04 -9.4614759932605259e-05  2.4481209534284507e-04 8.2568273685346529e-04 -9.3262955528511976e-05  2.4780997362877199e-04 8.3609235918982163e-04 -9.1881785899029065e-05  2.5081169543212089e-04 8.4643160028706195e-04 -9.0195950346969088e-05  2.5381167265961535e-04 8.5695392459520371e-04 -8.7593439576203873e-05  2.5706769102379448e-04 8.6874611468675954e-04 -8.4250037265592618e-05  2.6079242834085728e-04 8.8250019120924336e-04 -8.0428126296726410e-05  2.6548281147308381e-04 9.0158943805839495e-04 -7.6974254679878693e-05  2.7537478873500667e-04 9.2926337128624496e-04 -7.3041337483385226e-05  2.8899466601817653e-04 9.6353816556625645e-04 -6.9343890957986401e-05  3.0809682110127389e-04 1.0038007797449485e-03 -6.6347579156031760e-05  -8.9746442673378769e-08 2.0904427163558906e-08 1.0122259247340807e-07  -1.2316183789350699e-07 2.4177280718583844e-08 1.6770286504640135e-07  -1.5766577352403832e-07 2.8932710817856565e-08 2.3367016400926189e-07  -1.8397774479818602e-07 3.2569660794161783e-08 2.9416722440653535e-07  -2.1131863984585158e-07 3.6148540215538512e-08 3.5968043727185877e-07  -2.3907778814867743e-07 4.2362251484774488e-08 4.2041891991403341e-07  -2.7106591044273485e-07 5.0110806329342890e-08 4.8982926030149619e-07  -3.0529596925585245e-07 5.8365233260374399e-08 5.6115805575217025e-07  -3.4495020305985052e-07 6.8124284905280167e-08 6.3534693846226568e-07  -3.8950812747117566e-07 7.7134868902371390e-08 7.1286452803179895e-07  -4.3913922634036118e-07 8.7041177848380072e-08 7.9039796169149493e-07  -4.9353560281020702e-07 9.7455635890390931e-08 8.6734823933269465e-07  -5.5315000379758280e-07 1.0912328480589656e-07 9.4021052864712553e-07  -6.2025219318236527e-07 1.2467017137495769e-07 1.0267869512801632e-06  -6.9683063999891878e-07 1.4119792397443661e-07 1.1210071607666502e-06  -7.8331748382612360e-07 1.5604607229894587e-07 1.2062921902373831e-06  -8.7212757417427783e-07 1.7183641066827351e-07 1.2920919915489218e-06  -9.6739497889914902e-07 1.8944997254402861e-07 1.3874583155617952e-06  -1.0768362080813627e-06 2.0586298759177107e-07 1.4660840543006488e-06  -1.1977777180872510e-06 2.2644836222846779e-07 1.5570196623755238e-06  -1.3293437599391661e-06 2.4809389393979844e-07 1.6400351614418324e-06  -1.4661444105421085e-06 2.7142970205729296e-07 1.7184160143373048e-06  -1.6135605371326792e-06 2.9771983523116512e-07 1.8036460615068612e-06  -1.7736107900197319e-06 3.2109741989576253e-07 1.8762964773112683e-06  -1.9466033713108312e-06 3.4747073215977708e-07 1.9410696099721568e-06  -2.1301113411019172e-06 3.7395255660018234e-07 1.9884889178396502e-06  -2.3238330173074830e-06 4.0118324152431625e-07 2.0290213442251984e-06  -2.5236271220474887e-06 4.3187104535427544e-07 2.0495935651679112e-06  -2.7476730360684606e-06 4.7494307864332066e-07 2.0356453910428858e-06  -2.9780072274213643e-06 5.2138504871292939e-07 2.0067563614264387e-06  -3.2149545158875834e-06 5.7175946485744096e-07 1.9522833921753339e-06  -3.4612234616059999e-06 6.2532708365802946e-07 1.8818109516205761e-06  -3.7004135344962206e-06 6.9417828124431273e-07 1.7712340803605110e-06  -3.9577897597709366e-06 7.7715441111274406e-07 1.6158829809316619e-06  -4.2212586359419469e-06 8.6333496140042989e-07 1.4443486078111805e-06  -4.4793665750222332e-06 9.6397053192876733e-07 1.2180255883277398e-06  -4.7041878368630284e-06 1.1001590337246255e-06 9.1381195296089322e-07  -4.9578462186766259e-06 1.2098501359696764e-06 5.3908968976791459e-07  -5.1922300170643109e-06 1.3071031652252272e-06 1.0360136523447909e-07  -5.4451401605571526e-06 1.3769178055982236e-06 -3.6265544989582422e-07  -5.6703301265523146e-06 1.4071245454036390e-06 -9.4258167902332900e-07  -5.9043760973599176e-06 1.3610401694198347e-06 -1.5711636586880222e-06  -6.1113818886865981e-06 1.2170875892987394e-06 -2.3193389444987108e-06  -6.3347090058024071e-06 9.3014437991007014e-07 -3.1706560216621955e-06  -6.5604671190889731e-06 5.6626564860689952e-07 -4.0355408367496632e-06  -6.7238329661857487e-06 2.8480688804612427e-08 -5.0654175925689581e-06  -6.9006437931051943e-06 -5.4300221668020613e-07 -6.0747451075968176e-06  -7.0696526960910092e-06 -1.3360303233280802e-06 -7.2353922874877901e-06  -7.1863044335202455e-06 -2.1684159260689945e-06 -8.4657630358302475e-06  -7.2704165140901390e-06 -3.2048609869026302e-06 -9.7442180063915326e-06  -7.3486712233984315e-06 -4.3994661707415247e-06 -1.1116322861593802e-05  -7.3392711603907818e-06 -5.4668633800205167e-06 -1.2502219826975096e-05  -7.4003401028659998e-06 -6.8534072747977435e-06 -1.3849068330716779e-05  -7.1342232816175060e-06 -7.5624383593150282e-06 -1.5523546653295872e-05  -6.5887559187602264e-06 -7.2898282064321775e-06 -1.7086352034178503e-05  -5.9921058948855189e-06 -6.9385403062962998e-06 -1.8646290488820407e-05  -4.9868595289776262e-06 -5.2769266127615629e-06 -2.0326936119765656e-05  -3.5212441605741214e-06 -2.1861476407663566e-06 -2.2037375365508024e-05  -1.9030368825669448e-06 1.5835973020401755e-06 -2.3803513626323272e-05  -2.2908131950766764e-07 5.8509481734062915e-06 -2.5723965027119288e-05  2.4767459503233599e-06 1.2850042210317527e-05 -2.7789511887652621e-05  6.3765282602376117e-06 2.3119553022081247e-05 -3.0000080654049344e-05  1.0047730415814563e-05 3.2689901427530417e-05 -3.2410612027493257e-05  1.3804490770197712e-05 4.2242911181995036e-05 -3.4897288955834867e-05  1.7909893638807109e-05 5.2329342423012972e-05 -3.7936574745889848e-05  2.3361633128412608e-05 6.3741806081423939e-05 -4.1351976742001025e-05  2.7461801880279724e-05 7.0211442574903682e-05 -4.4807905325169886e-05  3.1591192615286855e-05 7.6167367310499837e-05 -4.8476309964675619e-05  3.2972450705617950e-05 7.1340313551725807e-05 -5.3551940029284329e-05  3.1973840893256462e-05 4.9534243757030955e-05 -5.7011593542424974e-05  3.1929756835115770e-05 2.6425471849283656e-05 -6.0228523214876583e-05  3.0887877143313404e-05 6.9921933723722975e-07 -6.2751473970243542e-05  2.6809678628477984e-05 -3.6597252350266567e-05 -6.5109947291930624e-05  2.3396099417411089e-05 -7.5457337573480622e-05 -6.6869338330396603e-05  1.5234273456509984e-05 -1.2953869690209943e-04 -6.8363641904415875e-05  2.9566964768414848e-06 -1.9904553345623867e-04 -6.7012997883902843e-05  -5.7543770453849747e-06 -2.5758706310482669e-04 -6.5800506562074839e-05  -1.2638226558868329e-05 -2.9898896932403031e-04 -6.3784963110911753e-05  -1.8299166578266760e-05 -3.3256490910000739e-04 -6.1153432089824656e-05  -1.2973061758934566e-05 -3.2817674749924491e-04 -5.2564601167527366e-05  -3.1206116899777439e-06 -2.8567058785054658e-04 -4.6844512281029595e-05  5.8171669208811983e-06 -2.4465441796139967e-04 -4.1235883019620389e-05  2.6604031928250755e-05 -1.5677958644293893e-04 -3.7785656443758196e-05  5.2788013828627015e-05 -4.4742993256593069e-05 -3.5269161767166791e-05  8.0236149147627810e-05 6.7487555785586119e-05 -3.6212500545720898e-05  9.7078977565187498e-05 1.5449590603321196e-04 -3.8865610720876168e-05  1.1645200795383979e-04 2.3492398075850658e-04 -3.9882249272844257e-05  1.3206729511769719e-04 3.0580504429268213e-04 -4.4394123018512588e-05  1.4600095515786301e-04 3.6234888277189754e-04 -5.0392515597145797e-05  1.5336068147325370e-04 3.9686321210971034e-04 -5.2309681938795631e-05  1.6271733806993608e-04 4.3229189327550582e-04 -5.3749357409504007e-05  1.7363243260194155e-04 4.8274379891373985e-04 -5.2360087312533966e-05  1.9235500067260096e-04 5.5295222701700491e-04 -5.0090155396989286e-05  2.0958604106751971e-04 6.3198653684111471e-04 -4.9395992958754808e-05  2.3005660950142309e-04 7.1718859502300700e-04 -5.0377507994260964e-05  2.4971051238369330e-04 8.0072864979047502e-04 -5.1818409674682101e-05  2.6939728419881378e-04 8.7741591610025749e-04 -5.5380391251220260e-05  2.9001596341807185e-04 9.4947033364344219e-04 -5.8776885248470829e-05  0.0000000000000000e+00 0.0000000000000000e+00 0.0000000000000000e+00  0.0000000000000000e+00 0.0000000000000000e+00 0.0000000000000000e+00  0.0000000000000000e+00 0.0000000000000000e+00 0.0000000000000000e+00  0.0000000000000000e+00 0.0000000000000000e+00 0.0000000000000000e+00  0.0000000000000000e+00 0.0000000000000000e+00 0.0000000000000000e+00  0.0000000000000000e+00 0.0000000000000000e+00 0.0000000000000000e+00  0.0000000000000000e+00 0.0000000000000000e+00 0.0000000000000000e+00  0.0000000000000000e+00 0.0000000000000000e+00 0.0000000000000000e+00  0.0000000000000000e+00 0.0000000000000000e+00 0.0000000000000000e+00  0.0000000000000000e+00 0.0000000000000000e+00 0.0000000000000000e+00  0.0000000000000000e+00 0.0000000000000000e+00 0.0000000000000000e+00  0.0000000000000000e+00 0.0000000000000000e+00 0.0000000000000000e+00  0.0000000000000000e+00 0.0000000000000000e+00 0.0000000000000000e+00  0.0000000000000000e+00 0.00000000000000