<?xml version="1.0"?>
<VTKFile type="UnstructuredGrid"  version="0.1"  >
<UnstructuredGrid>
<Piece  NumberOfPoints="10957" NumberOfCells="41672">
<Points>
<DataArray  type="Float64"  NumberOfComponents="3"  format="ascii">0.9925137449997291 -0.03728888383758438 0  0.007586802157453682 0.1349677647109762 0  0.007586802157453682 0.1349677647109762 2.95  0.9925137450519488 -0.03728888386417941 2.95  0.9643989096501694 -0.02716704134803519 0  0.9360617343536817 -0.01768327665856045 0  0.9076023198175265 -0.00857299075128265 0  0.8790871331840997 0.0003614069448361137 0  0.8505080400473725 0.009090242106019955 0  0.8218484917797876 0.0175509659925942 0  0.7931649761035906 0.02592935040050181 0  0.764418986146959 0.03409177790458878 0  0.7355999411752842 0.04199208040343261 0  0.706731175369029 0.04970752442632946 0  0.6778150466362781 0.05724422177386088 0  0.6488235004287045 0.06448534614328195 0  0.6197762269986674 0.07150054499793095 0  0.5906691301945188 0.07826269316251469 0  0.5614959755933637 0.08473383882735666 0  0.5322596382677409 0.09091321471851833 0  0.5029835339452652 0.09690037660788667 0  0.4736699718296479 0.1027023189330479 0  0.4443098233029065 0.1082645407993157 0  0.4149010073711484 0.1135628320994786 0  0.3854783433069935 0.1187834305436249 0  0.3560099120866912 0.1237401372022409 0  0.3265194297032009 0.1285612560788899 0  0.2969990933156311 0.1331978653889243 0  0.2674324755030887 0.1375295585331712 0  0.2378244583146815 0.1415687425006859 0  0.2081641615162468 0.1452020213412918 0  0.178471661952439 0.1485620625312685 0  0.1487339230235372 0.1514955168237853 0  0.1189428323115893 0.1538263087404927 0  0.08910021994414483 0.1553171437333857 0  0.05922253747548557 0.1554056076484339 0  0.02955586583595391 0.1522076925616009 0  0.007586802157453682 0.1349677647109762 0.02979797979797998  0.007586802157453682 0.1349677647109762 0.05959595959595964  0.007586802157453682 0.1349677647109762 0.08939393939393964  0.007586802157453682 0.1349677647109762 0.1191919191919193  0.007586802157453682 0.1349677647109762 0.1489898989898993  0.007586802157453682 0.1349677647109762 0.1787878787878789  0.007586802157453682 0.1349677647109762 0.2085858585858589  0.007586802157453682 0.1349677647109762 0.2383838383838386  0.007586802157453682 0.1349677647109762 0.2681818181818186  0.007586802157453682 0.1349677647109762 0.2979797979797985  0.007586802157453682 0.1349677647109762 0.3277777777777782  0.007586802157453682 0.1349677647109762 0.3575757575757582  0.007586802157453682 0.1349677647109762 0.3873737373737379  0.007586802157453682 0.1349677647109762 0.4171717171717177  0.007586802157453682 0.1349677647109762 0.4469696969696978  0.007586802157453682 0.1349677647109762 0.4767676767676775  0.007586802157453682 0.1349677647109762 0.5065656565656572  0.007586802157453682 0.1349677647109762 0.5363636363636372  0.007586802157453682 0.1349677647109762 0.5661616161616171  0.007586802157453682 0.1349677647109762 0.5959595959595968  0.007586802157453682 0.1349677647109762 0.6257575757575764  0.007586802157453682 0.1349677647109762 0.6555555555555564  0.007586802157453682 0.1349677647109762 0.685353535353536  0.007586802157453682 0.1349677647109762 0.7151515151515156  0.007586802157453682 0.1349677647109762 0.7449494949494957  0.007586802157453682 0.1349677647109762 0.7747474747474754  0.007586802157453682 0.1349677647109762 0.8045454545454551  0.007586802157453682 0.1349677647109762 0.8343434343434349  0.007586802157453682 0.1349677647109762 0.864141414141415  0.007586802157453682 0.1349677647109762 0.8939393939393944  0.007586802157453682 0.1349677647109762 0.9237373737373743  0.007586802157453682 0.1349677647109762 0.9535353535353542  0.007586802157453682 0.1349677647109762 0.9833333333333343  0.007586802157453682 0.1349677647109762 1.013131313131314  0.007586802157453682 0.1349677647109762 1.042929292929294  0.007586802157453682 0.1349677647109762 1.072727272727274  0.007586802157453682 0.1349677647109762 1.102525252525254  0.007586802157453682 0.1349677647109762 1.132323232323233  0.007586802157453682 0.1349677647109762 1.162121212121214  0.007586802157453682 0.1349677647109762 1.191919191919194  0.007586802157453682 0.1349677647109762 1.221717171717173  0.007586802157453682 0.1349677647109762 1.251515151515154  0.007586802157453682 0.1349677647109762 1.281313131313133  0.007586802157453682 0.1349677647109762 1.311111111111113  0.007586802157453682 0.1349677647109762 1.340909090909093  0.007586802157453682 0.1349677647109762 1.370707070707073  0.007586802157453682 0.1349677647109762 1.400505050505053  0.007586802157453682 0.1349677647109762 1.430303030303033  0.007586802157453682 0.1349677647109762 1.460101010101013  0.007586802157453682 0.1349677647109762 1.489898989898993  0.007586802157453682 0.1349677647109762 1.519696969696973  0.007586802157453682 0.1349677647109762 1.549494949494953  0.007586802157453682 0.1349677647109762 1.579292929292933  0.007586802157453682 0.1349677647109762 1.609090909090912  0.007586802157453682 0.1349677647109762 1.638888888888892  0.007586802157453682 0.1349677647109762 1.668686868686872  0.007586802157453682 0.1349677647109762 1.698484848484852  0.007586802157453682 0.1349677647109762 1.728282828282832  0.007586802157453682 0.1349677647109762 1.758080808080812  0.007586802157453682 0.1349677647109762 1.787878787878792  0.007586802157453682 0.1349677647109762 1.817676767676772  0.007586802157453682 0.1349677647109762 1.847474747474752  0.007586802157453682 0.1349677647109762 1.877272727272732  0.007586802157453682 0.1349677647109762 1.907070707070711  0.007586802157453682 0.1349677647109762 1.936868686868692  0.007586802157453682 0.1349677647109762 1.966666666666672  0.007586802157453682 0.1349677647109762 1.996464646464651  0.007586802157453682 0.1349677647109762 2.02626262626263  0.007586802157453682 0.1349677647109762 2.05606060606061  0.007586802157453682 0.1349677647109762 2.08585858585859  0.007586802157453682 0.1349677647109762 2.115656565656569  0.007586802157453682 0.1349677647109762 2.145454545454549  0.007586802157453682 0.1349677647109762 2.175252525252528  0.007586802157453682 0.1349677647109762 2.205050505050509  0.007586802157453682 0.1349677647109762 2.234848484848488  0.007586802157453682 0.1349677647109762 2.264646464646468  0.007586802157453682 0.1349677647109762 2.294444444444448  0.007586802157453682 0.1349677647109762 2.324242424242427  0.007586802157453682 0.1349677647109762 2.354040404040407  0.007586802157453682 0.1349677647109762 2.383838383838387  0.007586802157453682 0.1349677647109762 2.413636363636366  0.007586802157453682 0.1349677647109762 2.443434343434345  0.007586802157453682 0.1349677647109762 2.473232323232325  0.007586802157453682 0.1349677647109762 2.503030303030305  0.007586802157453682 0.1349677647109762 2.532828282828285  0.007586802157453682 0.1349677647109762 2.562626262626264  0.007586802157453682 0.1349677647109762 2.592424242424244  0.007586802157453682 0.1349677647109762 2.622222222222224  0.007586802157453682 0.1349677647109762 2.652020202020203  0.007586802157453682 0.1349677647109762 2.681818181818182  0.007586802157453682 0.1349677647109762 2.711616161616162  0.007586802157453682 0.1349677647109762 2.741414141414142  0.007586802157453682 0.1349677647109762 2.771212121212121  0.007586802157453682 0.1349677647109762 2.801010101010102  0.007586802157453682 0.1349677647109762 2.830808080808081  0.007586802157453682 0.1349677647109762 2.860606060606061  0.007586802157453682 0.1349677647109762 2.89040404040404  0.007586802157453682 0.1349677647109762 2.92020202020202  0.02955586665970645 0.152207692743969 2.95  0.0592225391622407 0.1554056076997827 2.95  0.08910022247431289 0.1553171436543912 2.95  0.1189428356790401 0.1538263085106716 2.95  0.1487339272258054 0.1514955164485778 2.95  0.1784716669857977 0.1485620619846548 2.95  0.2081641673828153 0.1452020206530984 2.95  0.2378244650101828 0.1415687416400932 2.95  0.2674324830262811 0.1375295574952611 2.95  0.2969991016635551 0.1331978641562543 2.95  0.3265194388709149 0.1285612546257254 2.95  0.3560099220724205 0.1237401355215495 2.95  0.3854783541254482 0.1187834287283932 2.95  0.4149010190000992 0.113562830018489 2.95  0.4443098357391194 0.1082645384431056 2.95  0.4736699850933383 0.1027023164111393 2.95  0.5029835480169053 0.09690037382073331 2.95  0.5322596531280808 0.09091321157617849 2.95  0.5614959912517894 0.08473383538307885 2.95  0.590669146638386 0.07826268936393518 2.95  0.6197762442228643 0.07150054083737761 2.95  0.6488235184809702 0.06448534181312304 2.95  0.677815065462649 0.05724421705657579 2.95  0.7067311949546904 0.04970751927410625 2.95  0.7355999615241583 0.04199207483830233 2.95  0.7644190072646493 0.03409177195406968 2.95  0.7931649980312939 0.02592934421293083 2.95  0.8218485144464328 0.01755095932049689 2.95  0.8505080634672842 0.009090235007654539 2.95  0.8790871574001908 0.0003613995875277054 2.95  0.9076023447508066 -0.008572998642740692 2.95  0.9360617600175944 -0.01768328503285081 2.95  0.9643989359861183 -0.02716705036944823 2.95  0.9925137450002565 -0.037288883837853 0.02979797979797999  0.992513745000784 -0.03728888383812164 0.05959595959595966  0.9925137450013115 -0.03728888383839029 0.08939393939393965  0.992513745001839 -0.03728888383865891 0.1191919191919193  0.9925137450023664 -0.03728888383892755 0.1489898989898993  0.9925137450028939 -0.0372888838391962 0.178787878787879  0.9925137450034214 -0.03728888383946482 0.2085858585858589  0.9925137450039488 -0.03728888383973347 0.2383838383838386  0.9925137450044763 -0.03728888384000211 0.2681818181818186  0.9925137450050038 -0.03728888384027073 0.2979797979797986  0.9925137450055312 -0.03728888384053938 0.3277777777777782  0.9925137450060587 -0.03728888384080802 0.3575757575757582  0.9925137450065862 -0.03728888384107667 0.3873737373737379  0.9925137450071136 -0.03728888384134529 0.4171717171717179  0.9925137450076411 -0.03728888384161392 0.4469696969696979  0.9925137450081686 -0.03728888384188257 0.4
[...]
<PointData  Vectors="Displacement"> 
<DataArray  type="Float64"  Name="Displacement"  NumberOfComponents="3" format="ascii">0.0000000000000000e+00 0.0000000000000000e+00 0.0000000000000000e+00  0.0000000000000000e+00 0.0000000000000000e+00 0.0000000000000000e+00  9.2383523852475070e-05 2.6383399200412651e-04 3.1810501570311545e-05  3.6944306961486358e-04 1.4007714477677878e-03 5.0251315723969003e-07  0.0000000000000000e+00 0.0000000000000000e+00 0.0000000000000000e+00  0.0000000000000000e+00 0.0000000000000000e+00 0.0000000000000000e+00  0.0000000000000000e+00 0.0000000000000000e+00 0.0000000000000000e+00  0.0000000000000000e+00 0.0000000000000000e+00 0.0000000000000000e+00  0.0000000000000000e+00 0.0000000000000000e+00 0.0000000000000000e+00  0.0000000000000000e+00 0.0000000000000000e+00 0.0000000000000000e+00  0.0000000000000000e+00 0.0000000000000000e+00 0.0000000000000000e+00  0.0000000000000000e+00 0.0000000000000000e+00 0.0000000000000000e+00  0.0000000000000000e+00 0.0000000000000000e+00 0.0000000000000000e+00  0.0000000000000000e+00 0.0000000000000000e+00 0.0000000000000000e+00  0.0000000000000000e+00 0.0000000000000000e+00 0.0000000000000000e+00  0.0000000000000000e+00 0.0000000000000000e+00 0.0000000000000000e+00  0.0000000000000000e+00 0.0000000000000000e+00 0.0000000000000000e+00  0.0000000000000000e+00 0.0000000000000000e+00 0.0000000000000000e+00  0.0000000000000000e+00 0.0000000000000000e+00 0.0000000000000000e+00  0.0000000000000000e+00 0.0000000000000000e+00 0.0000000000000000e+00  0.0000000000000000e+00 0.0000000000000000e+00 0.0000000000000000e+00  0.0000000000000000e+00 0.0000000000000000e+00 0.0000000000000000e+00  0.0000000000000000e+00 0.0000000000000000e+00 0.0000000000000000e+00  0.0000000000000000e+00 0.0000000000000000e+00 0.0000000000000000e+00  0.0000000000000000e+00 0.0000000000000000e+00 0.0000000000000000e+00  0.0000000000000000e+00 0.0000000000000000e+00 0.0000000000000000e+00  0.0000000000000000e+00 0.0000000000000000e+00 0.0000000000000000e+00  0.0000000000000000e+00 0.0000000000000000e+00 0.0000000000000000e+00  0.0000000000000000e+00 0.0000000000000000e+00 0.0000000000000000e+00  0.0000000000000000e+00 0.0000000000000000e+00 0.0000000000000000e+00  0.0000000000000000e+00 0.0000000000000000e+00 0.0000000000000000e+00  0.0000000000000000e+00 0.0000000000000000e+00 0.0000000000000000e+00  0.0000000000000000e+00 0.0000000000000000e+00 0.0000000000000000e+00  0.0000000000000000e+00 0.0000000000000000e+00 0.0000000000000000e+00  0.0000000000000000e+00 0.0000000000000000e+00 0.0000000000000000e+00  0.0000000000000000e+00 0.0000000000000000e+00 0.0000000000000000e+00  0.0000000000000000e+00 0.0000000000000000e+00 0.0000000000000000e+00  -1.4789245765383763e-11 2.2371797157227766e-12 -1.8246342786182132e-11  -2.3861224540239931e-11 3.9801105054254417e-12 -3.1997219687570959e-11  -3.3135859730813970e-11 5.7067197308719835e-12 -4.5412239955006753e-11  -4.3611929171647067e-11 7.7170697730800648e-12 -5.9769338830618979e-11  -5.5311808860624143e-11 9.7636535748508332e-12 -7.2815098991680264e-11  -6.8871639772977767e-11 1.2306360017265597e-11 -8.6080270855251325e-11  -8.4566241014178425e-11 1.5170808592918096e-11 -1.0002854037907291e-10  -1.0276727303348653e-10 1.8895121996173051e-11 -1.1486000924662834e-10  -1.2458311067371511e-10 2.2777050926522388e-11 -1.2996327325850405e-10  -1.4959473802684659e-10 2.7515465525237719e-11 -1.4533080558971094e-10  -1.7818985141180593e-10 3.2719043651812501e-11 -1.6164922455944815e-10  -2.1211151387296353e-10 3.8358060814932118e-11 -1.7953311519162636e-10  -2.5260505401703777e-10 4.5165234081517440e-11 -1.9658603615893694e-10  -2.9775542501129857e-10 5.3928645730026525e-11 -2.1557422128233625e-10  -3.5180284910314963e-10 6.4497519993870101e-11 -2.3358656170493153e-10  -4.1403686515339991e-10 7.5261336986732110e-11 -2.5075190072654822e-10  -4.8586046652918214e-10 8.8541124325615048e-11 -2.6696797276695706e-10  -5.7221822610529524e-10 1.0350293999603403e-10 -2.8164793743228701e-10  -6.6998855794096007e-10 1.2091515599579694e-10 -2.9338838707151306e-10  -7.8283820606817650e-10 1.4095442179812414e-10 -2.9957112390948549e-10  -9.1303750592763160e-10 1.6512250272229474e-10 -3.0175598109970796e-10  -1.0635735895588157e-09 1.9016225487649623e-10 -2.9990182262828622e-10  -1.2407473598189170e-09 2.2405012847975562e-10 -2.8520896425246140e-10  -1.4388734572968483e-09 2.5779985458913205e-10 -2.4523473216883993e-10  -1.6733837125404971e-09 2.9530167269873620e-10 -2.0793421480286302e-10  -1.9381748014696646e-09 3.4000772231162516e-10 -1.4339704622044266e-10  -2.2442105757483518e-09 3.9027290063148047e-10 -4.9559911803440078e-11  -2.6018557726318194e-09 4.4218083518454287e-10 6.4705587290858967e-11  -2.9955711672209282e-09 5.1906312148876184e-10 2.4871879188485674e-10  -3.4570469674013196e-09 6.1512823220613639e-10 4.5137303300251908e-10  -3.9713145681490050e-09 7.2261024520361444e-10 7.3708103295580175e-10  -4.5668653427873297e-09 8.4630377478947512e-10 1.0829819111994790e-09  -5.2274647517840734e-09 1.0011553229667609e-09 1.5219286475851663e-09  -5.9867291073234599e-09 1.1578759267852382e-09 2.1009000964443630e-09  -6.8696936690308472e-09 1.3579174394802983e-09 2.7714686310404390e-09  -7.8180287500495144e-09 1.5587087993039415e-09 3.6630197725848361e-09  -8.9089115608015524e-09 1.8464754587844207e-09 4.6617544619765431e-09  -1.0111143348749542e-08 2.1519233529205563e-09 5.9712390369209802e-09  -1.1485450233054004e-08 2.6079677069594611e-09 7.5051171354326647e-09  -1.3000085295772379e-08 3.0545665752355970e-09 9.4273436274272719e-09  -1.4688514871827406e-08 3.5635853188816017e-09 1.1673918129602878e-08  -1.6619617211855036e-08 4.0471699665727954e-09 1.4359742836524770e-08  -1.8718786487498055e-08 4.5246271416666552e-09 1.7860577296142112e-08  -2.1176861380893879e-08 4.9982385238764214e-09 2.1550144382726309e-08  -2.3721249731357659e-08 5.4642944693108711e-09 2.6400958284037218e-08  -2.6556977463498646e-08 6.0014056869315006e-09 3.1963882060947835e-08  -2.9719897186342452e-08 6.4324183143037539e-09 3.8564353505301962e-08  -3.3190175434838321e-08 6.2951170527919045e-09 4.6544313330656900e-08  -3.7258936830975243e-08 6.0137734361565260e-09 5.5209206578600141e-08  -4.1507359048768439e-08 5.3692566210484286e-09 6.6812528694982896e-08  -4.5740661948020126e-08 4.0957391926738693e-09 7.9755667210672935e-08  -5.1012413465838948e-08 2.0780060955234019e-09 9.4487774809923394e-08  -5.6263931938515021e-08 -1.0347938834720274e-09 1.1235217366075864e-07  -6.1933376321712778e-08 -5.0409335547485161e-09 1.3240208755241585e-07  -6.7810170687666985e-08 -9.3553817594922153e-09 1.5665005960303628e-07  -7.3807985865794403e-08 -1.3173363734494707e-08 1.8329311721074765e-07  -7.9436680638401151e-08 -1.7960158261503890e-08 2.1785273314808404e-07  -8.4566878246589939e-08 -2.3110498517204233e-08 2.5376352950691402e-07  -9.0057931554374500e-08 -2.6321467837125515e-08 2.9585952947164869e-07  -9.3474313827589535e-08 -2.5974319648985253e-08 3.4719541626918954e-07  -9.4074992617010746e-08 -1.9385288662573636e-08 4.0515687110566682e-07  -9.4014331055551392e-08 -7.5558138299986448e-09 4.7000782227101269e-07  -8.9323347027133986e-08 1.4869196906160238e-08 5.4596118444890603e-07  -7.9298061976791998e-08 5.6079604103079810e-08 6.4045718840065852e-07  -6.2864646671414099e-08 1.1066915718348772e-07 7.4386793003958874e-07  -3.8338582769245805e-08 1.8623338912757873e-07 8.6035165305732657e-07  -3.5091149037250350e-09 2.8207263662957298e-07 9.9188457300374688e-07  4.2246803278418910e-08 3.9926625392659048e-07 1.1409747600058349e-06  9.4010110961951120e-08 5.4065236363048777e-07 1.3088793033037723e-06  1.6642086717776482e-07 6.9532857925674717e-07 1.4978149021562424e-06  2.3945460772242087e-07 8.6014967781219335e-07 1.7058708094139460e-06  3.2917638570002689e-07 1.0093226963021891e-06 1.9502664807956000e-06  4.4786744132907795e-07 1.1139365519211322e-06 2.2504687870791894e-06  5.6390862653774148e-07 1.1895116656887175e-06 2.5460254165572119e-06  6.7869240895283493e-07 1.0699715982811296e-06 2.9167950452761902e-06  7.6271219902497235e-07 8.3031635275598108e-07 3.2840427481205145e-06  9.2530350694858719e-07 3.6300234539725516e-07 3.7451531507257139e-06  9.8262355437587555e-07 -3.5162400337809151e-07 4.1283281371233939e-06  1.0247528996448329e-06 -1.6436152699027186e-06 4.6852691732771870e-06  1.0768623823529007e-06 -3.3082156610114759e-06 5.2196153525733267e-06  1.1169553285990315e-06 -5.3911809232926716e-06 5.7658420454331217e-06  9.8655980872333936e-07 -8.1132911848822959e-06 6.6162746776858545e-06  9.2920363858691199e-07 -1.1324736834096112e-05 7.3572628028155735e-06  1.0193616189777213e-06 -1.4927972632553978e-05 8.2497601770540018e-06  1.1099649660567012e-06 -1.8698962260980444e-05 9.1755466389184832e-06  1.1368375723846715e-06 -2.2063746608502726e-05 9.9806621534588685e-06  2.1293955063966603e-06 -2.4667289540032886e-05 1.1561756258331371e-05  2.9528301848300463e-06 -2.5339267340352471e-05 1.1980222670094694e-05  4.0168749606332235e-06 -2.4561463053510799e-05 1.3227921882565207e-05  6.7377572724187647e-06 -2.0479551304438599e-05 1.5050806791464674e-05  9.9168486320836944e-06 -1.2636937530669098e-05 1.7550272277012690e-05  1.4425376261800717e-05 2.5879760137387768e-06 1.9012850393375100e-05  2.0809113751793446e-05 2.2684260369942435e-05 1.9741436800097600e-05  2.7750935204895594e-05 4.8745409334570913e-05 2.3368854580645639e-05  3.7809369050065074e-05 8.2147827519490389e-05 2.4430405431851470e-05  4.8070220308524928e-05 1.2332907341190948e-04 2.7530361260973402e-05  6.1866441367137913e-05 1.6897087008740092e-04 2.9131660580856863e-05  7.6595281077444625e-05 2.1734689061251808e-04 3.1272701032202586e-05  9.7506246124759026e-05 2.5841927968060888e-04 -2.9468760825500060e-06  9.5870538027101619e-05 2.5095372218534077e-04 -2.1120708501467318e-05  9.1604879146628854e-05 2.4309076347854967e-04 -3.0429341395536464e-05  8.7142915238481005e-05 2.3460151746233028e-04 -3.7083328113137955e-05  8.3669526443550023e-05 2.2884012328871716e-04 -4.1422102468764807e-05  8.0048015814462861e-05 2.2341353565543616e-04 -4.5576807522180219e-05  7.6908069074996079e-05 2.1912634732554681e-04 -4.7963700567262162e-05  7.3927206005894254e-05 2.1538060070167104e-04 -5.0291095686233937e-05  7.0273200721203475e-05 2.1302332567850533e-04 -5.1630332855309930e-05  6.7305822860025811e-05 2.1117346956786416e-04 -5.2601998227519734e-05  6.5165555428816889e-05 2.1059966883721072e-04 -5.3474327794157340e-05  6.2915050110757073e-05 2.1122384466602551e-04 -5.4275909860192849e-05  6.0808773554791726e-05 2.1290164171148499e-04 -5.5345107748219675e-05  5.9024615037752901e-05 2.1586248221678602e-04 -5.6281949448213659e-05  5.7836232451781205e-05 2.2038620557092561e-04 -5.7447022880758053e-05  5.7212313827405341e-05 2.2624595478303147e-04 -5.9031313952685014e-05  5.5699782911474484e-05 2.3365820853880355e-04 -6.0367978991747478e-05  5.6101217428693306e-05 2.4329932006887360e-04 -6.1720292200787152e-05  5.5128624099297989e-05 2.5507674135819388e-04 -6.3253916798096301e-05  5.5836711763444060e-05 2.7023279169261980e-04 -6.4380234967023354e-05  5.6316051871535578e-05 2.8598714022454413e-04 -6.6203405753262169e-05  5.7974675481276102e-05 3.0760175211921094e-04 -6.5831448721757383e-05  5.8669448480864259e-05 3.3235259343406909e-04 -6.8765533829168583e-05  6.3012818615870131e-05 3.6539792743713598e-04 -6.9312969240802394e-05  6.8610500419495876e-05 4.0554215300847763e-04 -7.2052549701262855e-05  7.5123900529371605e-05 4.5278491584229596e-04 -7.4029172352399936e-05  8.6271651451991487e-05 5.0765960410623198e-04 -7.3710485912215965e-05  1.0228846804133558e-04 5.7672766071064708e-04 -6.9784117277727346e-05  1.2326125001403898e-04 6.6411584948039429e-04 -6.5418282251714002e-05  1.4731507728146635e-04 7.7556977077620722e-04 -6.1564135853539947e-05  1.9362632520284013e-04 9.2330225106187840e-04 -5.3036181398370173e-05  2.5281431470943442e-04 1.0967382171082926e-03 -4.0295083266996311e-05  3.2026734293246839e-04 1.2699326032972480e-03 -2.3857539369441839e-05  -3.3890046897910694e-11 8.8780447744266579e-12 3.8049431937572126e-11  -4.7697369743120703e-11 1.1284232479509220e-11 6.2563778444123699e-11  -6.2770629215380048e-11 1.4127098212075471e-11 8.6117877037675367e-11  -7.6323227298904929e-11 1.6774193402572504e-11 1.0729609052177330e-10  -9.0402759273242277e-11 1.9482410819595617e-11 1.3062189057110760e-10  -1.0575447715316357e-10 2.3441617790951370e-11 1.5163017911137377e-10  -1.2370811790355738e-10 2.8969885469391835e-11 1.7629043601178762e-10  -1.4352336291711089e-10 3.4834521636713271e-11 2.0129619953784209e-10  -1.6678186410439687e-10 4.1819743441985224e-11 2.2733691921416693e-10  -1.9402061310654573e-10 4.8630630351670034e-11 2.5377050469414916e-10  -2.2431682825648659e-10 5.6356501628552869e-11 2.8050355285242688e-10  -2.5900939777111933e-10 6.4178632723443133e-11 3.0559762109250221e-10  -2.9850789554727290e-10 7.3193373801912684e-11 3.2762701018209234e-10  -3.4417872394171965e-10 8.5851993386017313e-11 3.5640729190978859e-10  -3.9670055439359992e-10 1.0110453955905508e-10 3.8679570778128257e-10  -4.6122773769861968e-10 1.1552029808752743e-10 4.0560129109818632e-10  -5.2828302774651973e-10 1.3094764480591766e-10 4.2352001769902702e-10  -5.9888811672671716e-10 1.4904728004113781e-10 4.4707464448394161e-10  -6.9133618212167449e-10 1.6760977461253204e-10 4.4719850825287760e-10  -7.9234198811040675e-10 1.9384065568083121e-10 4.4880184915485293e-10  -9.1000442789008875e-10 2.2490219783229767e-10 4.2646166474983511e-10  -1.0380455281213023e-09 2.5921814089309765e-10 3.9339325466340630e-10  -1.1755348650890194e-09 3.0402551496393607e-10 3.5931814420993345e-10  -1.3347189307417458e-09 3.4717592229695649e-10 2.8834921812182328e-10  -1.5114626598389913e-09 4.0475275649128783e-10 1.8402020061267315e-10  -1.7120011647560973e-09 4.6110806813043503e-10 4.3168489125764506e-11  -1.9388030925638888e-09 4.9883161467280321e-10 -1.5614980445575567e-10  -2.1710294839669070e-09 5.1850152757814866e-10 -4.2955968920243264e-10  -2.4910959696776823e-09 5.5536730934270639e-10 -8.2574597326212055e-10  -2.8334891371866316e-09 5.9615598292566423e-10 -1.2977876923116722e-09  -3.2013195751976570e-09 6.3054814660291500e-10 -1.8951347194579636e-09  -3.6088171902561622e-09 6.7020513371622401e-10 -2.5599235017640345e-09  -3.9935734954353731e-09 7.0743768790094021e-10 -3.4406446226422214e-09  -4.4897117797248072e-09 7.8708730825748513e-10 -4.5463245490645678e-09  -5.0318463025705694e-09 8.6734642566527563e-10 -5.7460929479362006e-09  -5.5880901960400911e-09 9.9417190944503514e-10 -7.2661982676055441e-09  -5.9992466653037650e-09 1.2515451446323026e-09 -9.2351190752404771e-09  -6.6638930874303942e-09 1.4670094547763029e-09 -1.1784194620847146e-08  -7.2427284349434428e-09 1.6669741651578465e-09 -1.4755904651217130e-08  -8.0323051392169025e-09 1.8226936942977353e-09 -1.8091464203476950e-08  -8.7736990590234177e-09 1.7424646189494377e-09 -2.2224050588888172e-08  -9.6720384666115820e-09 1.6736370149201637e-09 -2.6989119838129909e-08  -1.0182957433308706e-08 1.8881666091017535e-09 -3.3052664984464470e-08  -1.0733254143114560e-08 2.0395564092544934e-09 -4.0472070083727502e-08  -1.1801629925171096e-08 2.0164858676947121e-09 -4.8516552044138496e-08  -1.1859348933686610e-08 2.2019117969808392e-09 -5.9062438065250843e-08  -1.2685250125265945e-08 2.7169081891443072e-09 -7.0541974193587933e-08  -1.2441845173914532e-08 2.9132749432954267e-09 -8.4528508819258926e-08  -1.2684851746296577e-08 2.6675646640457941e-09 -1.0036166861100488e-07  -1.2673301879649897e-08 2.5037782408316832e-09 -1.1925643963655539e-07  -1.1286248120739978e-08 2.3822516566599014e-09 -1.4234392694223685e-07  -1.1225992584873239e-08 2.7858319275282729e-09 -1.6747898251648250e-07  -8.7610860063156604e-09 1.2394048303888123e-10 -1.9871225119737471e-07  -4.8263564049338221e-09 -2.6354357836453473e-09 -2.3642030192252825e-07  -2.5718071594614477e-09 -6.3644588794837509e-09 -2.7847981139262877e-07  9.5042826267046723e-11 -1.0584244885071467e-08 -3.2296624069095506e-07  8.5311336322795157e-09 -1.9374727956281095e-08 -3.7921741770959299e-07  1.5505304979426159e-08 -2.9974237265129876e-08 -4.4369174239021732e-07  2.1882264347277151e-08 -4.1450078083133725e-08 -5.1419748072590359e-07  3.0004533536518924e-08 -5.3834803041359049e-08 -5.9185464079147054e-07  4.4113783613701536e-08 -7.8656867671679956e-08 -6.8937081621946468e-07  6.2615536541900545e-08 -1.1056128574383794e-07 -8.0529017428022293e-07  8.1432737139702399e-08 -1.3495134065218174e-07 -9.3279218952086367e-07  1.0070076156189362e-07 -1.5922253157234219e-07 -1.0671658634319013e-06  1.2806977027571089e-07 -1.8621615515053500e-07 -1.2234412101471423e-06  1.6720446260347072e-07 -2.2961750083960899e-07 -1.4161729438334740e-06  2.0996165154943455e-07 -2.5436273081527912e-07 -1.6271064589266786e-06  2.5925574082392659e-07 -2.7628704669253655e-07 -1.8503048827897250e-06  3.5180626780490426e-07 -2.5583009652820049e-07 -2.1318221144789425e-06  4.7113137403661932e-07 -1.4080157114267415e-07 -2.4440768761126770e-06  5.8845848181981747e-07 -1.5032159694236078e-08 -2.7894436568930178e-06  7.3850601351386503e-07 1.2656954440877777e-07 -3.1927876246180517e-06  9.3890168990818958e-07 3.5328395619206266e-07 -3.6511635730443441e-06  1.1335374168292745e-06 5.9504791412496751e-07 -4.1268861851178583e-06  1.4767238966746686e-06 1.0244062124617884e-06 -4.7434806729054017e-06  1.9287017639338094e-06 1.7221835014896598e-06 -5.4616721586449306e-06  2.4276219155580815e-06 2.4376911070911141e-06 -6.2805944473939164e-06  2.9645249266310812e-06 2.9901251612642117e-06 -7.2375384687040038e-06  3.5218660662655360e-06 3.4876778669968990e-06 -8.2140579814139998e-06  4.2204371100841032e-06 3.6137790628313418e-06 -9.4686777355429048e-06  4.8946333706714424e-06 2.9387990633056732e-06 -1.0806022351083906e-05  5.6093261880501515e-06 2.3250191772705442e-06 -1.2187707971883646e-05  6.2475497098623606e-06 4.7460662268242074e-07 -1.3578469295751265e-05  6.4987453357541329e-06 -3.4139735216639640e-06 -1.5154026673421170e-05  6.2892918062150526e-06 -1.0117547942713041e-05 -1.6604219498353774e-05  5.5809138836393827e-06 -1.8520783086076909e-05 -1.7772454784165576e-05  5.0814040775894032e-06 -2.7191787515506373e-05 -1.8700026056239059e-05  4.6413657291133557e-06 -3.4826648957696183e-05 -1.8913276730533372e-05  4.0412300741978482e-06 -4.1618826470535753e-05 -1.8223447118000124e-05  4.8956150969079896e-06 -3.9719302977811341e-05 -1.6792512546220914e-05  1.2011276824325843e-05 -1.5381661271691671e-05 -1.6788625968494787e-05  2.3121401672402693e-05 3.3644790996753704e-05 -1.2874912308545887e-05  4.5954200392738415e-05 1.1251558348046768e-04 -5.9165713796654349e-06  6.5823805594655339e-05 2.1691361580901926e-04 -7.6600222055976327e-07  9.9926889986534371e-05 3.5895269097578402e-04 4.1254413877143603e-06  1.5270749236102131e-04 5.7903696994847896e-04 -3.6230519899204749e-07  2.2065857131167889e-04 8.5683605890188449e-04 3.4724511357985379e-06  2.9117831860333746e-04 1.1237384911681561e-03 5.1772183793677512e-06  0.0000000000000000e+00 0.0000000000000000e+00 0.0000000000000000e+00  0.0000000000000000e+00 0.0000000000000000e+00 0.0000000000000000e+00  0.0000000000000000e+00 0.0000000000000000e+00 0.0000000000000000e+00  0.0000000000000000e+00 0.0000000000000000e+00 0.0000000000000000e+00  0.0000000000000000e+00 0.0000000000000000e+00 0.0000000000000000e+00  0.0000000000000000e+00 0.0000000000000000e+00 0.0000000000000000e+00  0.0000000000000000e+00 0.0000000000000000e+00 0.0000000000000000e+00  0.0000000000000000e+00 0.0000000000000000e+00 0.0000000000000000e+00  0.0000000000000000e+00 0.0000000000000000e+00 0.0000000000000000e+00  0.0000000000000000e+00 0.0000000000000000e+00 0.0000000000000000e+00  0.0000000000000000e+00 0.0000000000000000e+00 0.0000000000000000e+00  0.0000000000000000e+00 0.0000000000000000e+00 0.0000000000000000e+00  0.0000000000000000e+00 0.0000000000000000e+00 0.0000000000000000e+00  0.0000000000000000e+00 0.0000000000000000e+00