<?xml version="1.0"?>
<VTKFile type="UnstructuredGrid"  version="0.1"  >
<UnstructuredGrid>
<Piece  NumberOfPoints="10957" NumberOfCells="41672">
<Points>
<DataArray  type="Float64"  NumberOfComponents="3"  format="ascii">0.9925137449997291 -0.03728888383758438 0  0.007586802157453682 0.1349677647109762 0  0.007586802157453682 0.1349677647109762 2.95  0.9925137450519488 -0.03728888386417941 2.95  0.9643989096501694 -0.02716704134803519 0  0.9360617343536817 -0.01768327665856045 0  0.9076023198175265 -0.00857299075128265 0  0.8790871331840997 0.0003614069448361137 0  0.8505080400473725 0.009090242106019955 0  0.8218484917797876 0.0175509659925942 0  0.7931649761035906 0.02592935040050181 0  0.764418986146959 0.03409177790458878 0  0.7355999411752842 0.04199208040343261 0  0.706731175369029 0.04970752442632946 0  0.6778150466362781 0.05724422177386088 0  0.6488235004287045 0.06448534614328195 0  0.6197762269986674 0.07150054499793095 0  0.5906691301945188 0.07826269316251469 0  0.5614959755933637 0.08473383882735666 0  0.5322596382677409 0.09091321471851833 0  0.5029835339452652 0.09690037660788667 0  0.4736699718296479 0.1027023189330479 0  0.4443098233029065 0.1082645407993157 0  0.4149010073711484 0.1135628320994786 0  0.3854783433069935 0.1187834305436249 0  0.3560099120866912 0.1237401372022409 0  0.3265194297032009 0.1285612560788899 0  0.2969990933156311 0.1331978653889243 0  0.2674324755030887 0.1375295585331712 0  0.2378244583146815 0.1415687425006859 0  0.2081641615162468 0.1452020213412918 0  0.178471661952439 0.1485620625312685 0  0.1487339230235372 0.1514955168237853 0  0.1189428323115893 0.1538263087404927 0  0.08910021994414483 0.1553171437333857 0  0.05922253747548557 0.1554056076484339 0  0.02955586583595391 0.1522076925616009 0  0.007586802157453682 0.1349677647109762 0.02979797979797998  0.007586802157453682 0.1349677647109762 0.05959595959595964  0.007586802157453682 0.1349677647109762 0.08939393939393964  0.007586802157453682 0.1349677647109762 0.1191919191919193  0.007586802157453682 0.1349677647109762 0.1489898989898993  0.007586802157453682 0.1349677647109762 0.1787878787878789  0.007586802157453682 0.1349677647109762 0.2085858585858589  0.007586802157453682 0.1349677647109762 0.2383838383838386  0.007586802157453682 0.1349677647109762 0.2681818181818186  0.007586802157453682 0.1349677647109762 0.2979797979797985  0.007586802157453682 0.1349677647109762 0.3277777777777782  0.007586802157453682 0.1349677647109762 0.3575757575757582  0.007586802157453682 0.1349677647109762 0.3873737373737379  0.007586802157453682 0.1349677647109762 0.4171717171717177  0.007586802157453682 0.1349677647109762 0.4469696969696978  0.007586802157453682 0.1349677647109762 0.4767676767676775  0.007586802157453682 0.1349677647109762 0.5065656565656572  0.007586802157453682 0.1349677647109762 0.5363636363636372  0.007586802157453682 0.1349677647109762 0.5661616161616171  0.007586802157453682 0.1349677647109762 0.5959595959595968  0.007586802157453682 0.1349677647109762 0.6257575757575764  0.007586802157453682 0.1349677647109762 0.6555555555555564  0.007586802157453682 0.1349677647109762 0.685353535353536  0.007586802157453682 0.1349677647109762 0.7151515151515156  0.007586802157453682 0.1349677647109762 0.7449494949494957  0.007586802157453682 0.1349677647109762 0.7747474747474754  0.007586802157453682 0.1349677647109762 0.8045454545454551  0.007586802157453682 0.1349677647109762 0.8343434343434349  0.007586802157453682 0.1349677647109762 0.864141414141415  0.007586802157453682 0.1349677647109762 0.8939393939393944  0.007586802157453682 0.1349677647109762 0.9237373737373743  0.007586802157453682 0.1349677647109762 0.9535353535353542  0.007586802157453682 0.1349677647109762 0.9833333333333343  0.007586802157453682 0.1349677647109762 1.013131313131314  0.007586802157453682 0.1349677647109762 1.042929292929294  0.007586802157453682 0.1349677647109762 1.072727272727274  0.007586802157453682 0.1349677647109762 1.102525252525254  0.007586802157453682 0.1349677647109762 1.132323232323233  0.007586802157453682 0.1349677647109762 1.162121212121214  0.007586802157453682 0.1349677647109762 1.191919191919194  0.007586802157453682 0.1349677647109762 1.221717171717173  0.007586802157453682 0.1349677647109762 1.251515151515154  0.007586802157453682 0.1349677647109762 1.281313131313133  0.007586802157453682 0.1349677647109762 1.311111111111113  0.007586802157453682 0.1349677647109762 1.340909090909093  0.007586802157453682 0.1349677647109762 1.370707070707073  0.007586802157453682 0.1349677647109762 1.400505050505053  0.007586802157453682 0.1349677647109762 1.430303030303033  0.007586802157453682 0.1349677647109762 1.460101010101013  0.007586802157453682 0.1349677647109762 1.489898989898993  0.007586802157453682 0.1349677647109762 1.519696969696973  0.007586802157453682 0.1349677647109762 1.549494949494953  0.007586802157453682 0.1349677647109762 1.579292929292933  0.007586802157453682 0.1349677647109762 1.609090909090912  0.007586802157453682 0.1349677647109762 1.638888888888892  0.007586802157453682 0.1349677647109762 1.668686868686872  0.007586802157453682 0.1349677647109762 1.698484848484852  0.007586802157453682 0.1349677647109762 1.728282828282832  0.007586802157453682 0.1349677647109762 1.758080808080812  0.007586802157453682 0.1349677647109762 1.787878787878792  0.007586802157453682 0.1349677647109762 1.817676767676772  0.007586802157453682 0.1349677647109762 1.847474747474752  0.007586802157453682 0.1349677647109762 1.877272727272732  0.007586802157453682 0.1349677647109762 1.907070707070711  0.007586802157453682 0.1349677647109762 1.936868686868692  0.007586802157453682 0.1349677647109762 1.966666666666672  0.007586802157453682 0.1349677647109762 1.996464646464651  0.007586802157453682 0.1349677647109762 2.02626262626263  0.007586802157453682 0.1349677647109762 2.05606060606061  0.007586802157453682 0.1349677647109762 2.08585858585859  0.007586802157453682 0.1349677647109762 2.115656565656569  0.007586802157453682 0.1349677647109762 2.145454545454549  0.007586802157453682 0.1349677647109762 2.175252525252528  0.007586802157453682 0.1349677647109762 2.205050505050509  0.007586802157453682 0.1349677647109762 2.234848484848488  0.007586802157453682 0.1349677647109762 2.264646464646468  0.007586802157453682 0.1349677647109762 2.294444444444448  0.007586802157453682 0.1349677647109762 2.324242424242427  0.007586802157453682 0.1349677647109762 2.354040404040407  0.007586802157453682 0.1349677647109762 2.383838383838387  0.007586802157453682 0.1349677647109762 2.413636363636366  0.007586802157453682 0.1349677647109762 2.443434343434345  0.007586802157453682 0.1349677647109762 2.473232323232325  0.007586802157453682 0.1349677647109762 2.503030303030305  0.007586802157453682 0.1349677647109762 2.532828282828285  0.007586802157453682 0.1349677647109762 2.562626262626264  0.007586802157453682 0.1349677647109762 2.592424242424244  0.007586802157453682 0.1349677647109762 2.622222222222224  0.007586802157453682 0.1349677647109762 2.652020202020203  0.007586802157453682 0.1349677647109762 2.681818181818182  0.007586802157453682 0.1349677647109762 2.711616161616162  0.007586802157453682 0.1349677647109762 2.741414141414142  0.007586802157453682 0.1349677647109762 2.771212121212121  0.007586802157453682 0.1349677647109762 2.801010101010102  0.007586802157453682 0.1349677647109762 2.830808080808081  0.007586802157453682 0.1349677647109762 2.860606060606061  0.007586802157453682 0.1349677647109762 2.89040404040404  0.007586802157453682 0.1349677647109762 2.92020202020202  0.02955586665970645 0.152207692743969 2.95  0.0592225391622407 0.1554056076997827 2.95  0.08910022247431289 0.1553171436543912 2.95  0.1189428356790401 0.1538263085106716 2.95  0.1487339272258054 0.1514955164485778 2.95  0.1784716669857977 0.1485620619846548 2.95  0.2081641673828153 0.1452020206530984 2.95  0.2378244650101828 0.1415687416400932 2.95  0.2674324830262811 0.1375295574952611 2.95  0.2969991016635551 0.1331978641562543 2.95  0.3265194388709149 0.1285612546257254 2.95  0.3560099220724205 0.1237401355215495 2.95  0.3854783541254482 0.1187834287283932 2.95  0.4149010190000992 0.113562830018489 2.95  0.4443098357391194 0.1082645384431056 2.95  0.4736699850933383 0.1027023164111393 2.95  0.5029835480169053 0.09690037382073331 2.95  0.5322596531280808 0.09091321157617849 2.95  0.5614959912517894 0.08473383538307885 2.95  0.590669146638386 0.07826268936393518 2.95  0.6197762442228643 0.07150054083737761 2.95  0.6488235184809702 0.06448534181312304 2.95  0.677815065462649 0.05724421705657579 2.95  0.7067311949546904 0.04970751927410625 2.95  0.7355999615241583 0.04199207483830233 2.95  0.7644190072646493 0.03409177195406968 2.95  0.7931649980312939 0.02592934421293083 2.95  0.8218485144464328 0.01755095932049689 2.95  0.8505080634672842 0.009090235007654539 2.95  0.8790871574001908 0.0003613995875277054 2.95  0.9076023447508066 -0.008572998642740692 2.95  0.9360617600175944 -0.01768328503285081 2.95  0.9643989359861183 -0.02716705036944823 2.95  0.9925137450002565 -0.037288883837853 0.02979797979797999  0.992513745000784 -0.03728888383812164 0.05959595959595966  0.9925137450013115 -0.03728888383839029 0.08939393939393965  0.992513745001839 -0.03728888383865891 0.1191919191919193  0.9925137450023664 -0.03728888383892755 0.1489898989898993  0.9925137450028939 -0.0372888838391962 0.178787878787879  0.9925137450034214 -0.03728888383946482 0.2085858585858589  0.9925137450039488 -0.03728888383973347 0.2383838383838386  0.9925137450044763 -0.03728888384000211 0.2681818181818186  0.9925137450050038 -0.03728888384027073 0.2979797979797986  0.9925137450055312 -0.03728888384053938 0.3277777777777782  0.9925137450060587 -0.03728888384080802 0.3575757575757582  0.9925137450065862 -0.03728888384107667 0.3873737373737379  0.9925137450071136 -0.03728888384134529 0.4171717171717179  0.9925137450076411 -0.03728888384161392 0.4469696969696979  0.9925137450081686 -0.03728888384188257 0.4
[...]
<PointData  Vectors="Displacement"> 
<DataArray  type="Float64"  Name="Displacement"  NumberOfComponents="3" format="ascii">0.0000000000000000e+00 0.0000000000000000e+00 0.0000000000000000e+00  0.0000000000000000e+00 0.0000000000000000e+00 0.0000000000000000e+00  2.5258373198586956e-04 6.5197537407330408e-04 5.0355149518812846e-05  3.1999732389303043e-04 9.7021855801983240e-04 -6.2968840536452368e-05  0.0000000000000000e+00 0.0000000000000000e+00 0.0000000000000000e+00  0.0000000000000000e+00 0.0000000000000000e+00 0.0000000000000000e+00  0.0000000000000000e+00 0.0000000000000000e+00 0.0000000000000000e+00  0.0000000000000000e+00 0.0000000000000000e+00 0.0000000000000000e+00  0.0000000000000000e+00 0.0000000000000000e+00 0.0000000000000000e+00  0.0000000000000000e+00 0.0000000000000000e+00 0.0000000000000000e+00  0.0000000000000000e+00 0.0000000000000000e+00 0.0000000000000000e+00  0.0000000000000000e+00 0.0000000000000000e+00 0.0000000000000000e+00  0.0000000000000000e+00 0.0000000000000000e+00 0.0000000000000000e+00  0.0000000000000000e+00 0.0000000000000000e+00 0.0000000000000000e+00  0.0000000000000000e+00 0.0000000000000000e+00 0.0000000000000000e+00  0.0000000000000000e+00 0.0000000000000000e+00 0.0000000000000000e+00  0.0000000000000000e+00 0.0000000000000000e+00 0.0000000000000000e+00  0.0000000000000000e+00 0.0000000000000000e+00 0.0000000000000000e+00  0.0000000000000000e+00 0.0000000000000000e+00 0.0000000000000000e+00  0.0000000000000000e+00 0.0000000000000000e+00 0.0000000000000000e+00  0.0000000000000000e+00 0.0000000000000000e+00 0.0000000000000000e+00  0.0000000000000000e+00 0.0000000000000000e+00 0.0000000000000000e+00  0.0000000000000000e+00 0.0000000000000000e+00 0.0000000000000000e+00  0.0000000000000000e+00 0.0000000000000000e+00 0.0000000000000000e+00  0.0000000000000000e+00 0.0000000000000000e+00 0.0000000000000000e+00  0.0000000000000000e+00 0.0000000000000000e+00 0.0000000000000000e+00  0.0000000000000000e+00 0.0000000000000000e+00 0.0000000000000000e+00  0.0000000000000000e+00 0.0000000000000000e+00 0.0000000000000000e+00  0.0000000000000000e+00 0.0000000000000000e+00 0.0000000000000000e+00  0.0000000000000000e+00 0.0000000000000000e+00 0.0000000000000000e+00  0.0000000000000000e+00 0.0000000000000000e+00 0.0000000000000000e+00  0.0000000000000000e+00 0.0000000000000000e+00 0.0000000000000000e+00  0.0000000000000000e+00 0.0000000000000000e+00 0.0000000000000000e+00  0.0000000000000000e+00 0.0000000000000000e+00 0.0000000000000000e+00  0.0000000000000000e+00 0.0000000000000000e+00 0.0000000000000000e+00  0.0000000000000000e+00 0.0000000000000000e+00 0.0000000000000000e+00  0.0000000000000000e+00 0.0000000000000000e+00 0.0000000000000000e+00  -1.2753147156789479e-07 1.9416992125807278e-08 -1.6517256342342885e-07  -1.9315395657451030e-07 3.1041720266467007e-08 -2.9649954917757944e-07  -2.5160886175545488e-07 4.2565388399761060e-08 -4.2905889940115743e-07  -3.1252032430476844e-07 5.4212068970559002e-08 -5.6904124895462487e-07  -3.7804995420702197e-07 6.5541533678962730e-08 -7.0034377486372878e-07  -4.5209106829910150e-07 7.8865622523527339e-08 -8.3350798276037744e-07  -5.3529609560470551e-07 9.3184654874141429e-08 -9.6720508963709198e-07  -6.2916218269898925e-07 1.1044945608388317e-07 -1.1073941617033057e-06  -7.3748737614767011e-07 1.2753153699205001e-07 -1.2475408040701829e-06  -8.5770256447622240e-07 1.4741439816027432e-07 -1.3891200698676648e-06  -9.9108740901500634e-07 1.6855061492230272e-07 -1.5385417556400957e-06  -1.1413634186022286e-06 1.9030888582867003e-07 -1.6873701413058781e-06  -1.3106879829317195e-06 2.1528413651377980e-07 -1.8334940400611125e-06  -1.4908606070690464e-06 2.4793989374109191e-07 -1.9836534480099995e-06  -1.6934998238595441e-06 2.8464853494349658e-07 -2.1319757776237841e-06  -1.9131398226856454e-06 3.2284662506113412e-07 -2.2803509574200480e-06  -2.1513648444550157e-06 3.6945338726223179e-07 -2.4273688093496892e-06  -2.4151650643743251e-06 4.2209284752489657e-07 -2.5640933114313686e-06  -2.6952488444749049e-06 4.8280340441913035e-07 -2.7029426084218855e-06  -2.9962986930258966e-06 5.5270893487499470e-07 -2.8302654982795702e-06  -3.3192720469580457e-06 6.3251185689389801e-07 -2.9503775083466884e-06  -3.6616646057085311e-06 7.2294548795103360e-07 -3.0649416600084936e-06  -4.0314710604881526e-06 8.2807243952528858e-07 -3.1631293599198161e-06  -4.4172149406770515e-06 9.4320861168963763e-07 -3.2355745598828986e-06  -4.8273703565463407e-06 1.0721330534522792e-06 -3.3020954694004836e-06  -5.2566390336340298e-06 1.2115765779050664e-06 -3.3457617381106663e-06  -5.7061362766926783e-06 1.3545323634978420e-06 -3.3545010666951012e-06  -6.1784601080188549e-06 1.4940757115656002e-06 -3.3482869206171725e-06  -6.6647860836011678e-06 1.6370430098429124e-06 -3.2991064420196259e-06  -7.1727760778770896e-06 1.7753675772187454e-06 -3.2188409379138856e-06  -7.6960107846768376e-06 1.8781720397706407e-06 -3.1013492600752523e-06  -8.2366550118031454e-06 1.9403381063111082e-06 -2.9324750553338891e-06  -8.7864216624956967e-06 1.9597582308338334e-06 -2.7269318985836908e-06  -9.3542483115037667e-06 1.9250720422605147e-06 -2.4436581575355321e-06  -9.9281783100269631e-06 1.7935532486282415e-06 -2.1342682480776641e-06  -1.0508942993943743e-05 1.5738226558963209e-06 -1.7087801514887617e-06  -1.1088381440551370e-05 1.2679823776389063e-06 -1.2867119760636276e-06  -1.1669928040833286e-05 8.3768562357314377e-07 -7.4325205322647572e-07  -1.2204058731710342e-05 3.3366259876946600e-07 -1.7471972535509281e-07  -1.2728483720492593e-05 -2.5808602420776345e-07 5.1531970159046017e-07  -1.3211690506562508e-05 -8.9157362141953350e-07 1.2672527443729351e-06  -1.3632887145797236e-05 -1.5337084993649715e-06 2.0762479083174496e-06  -1.3969457792741191e-05 -2.1411011371673889e-06 3.0650838491173677e-06  -1.4234158355965789e-05 -2.5846694000884471e-06 3.8937423263923915e-06  -1.4377498258722624e-05 -2.8190039409702846e-06 4.9862732462634202e-06  -1.4332665589745377e-05 -2.7511099224952072e-06 6.1124609750977721e-06  -1.4082230844765002e-05 -2.3579964880223588e-06 7.4210639314467604e-06  -1.3606624925288146e-05 -1.2200120862075692e-06 8.7191066220827693e-06  -1.2863841920921535e-05 5.6650007832795037e-07 9.9767681203696904e-06  -1.1924614421860652e-05 2.8808427351849769e-06 1.1539288565949858e-05  -1.0628270370792461e-05 6.2173122049074353e-06 1.2982000704140046e-05  -8.9772827913090861e-06 1.0511412324392062e-05 1.4517652740329132e-05  -7.0705212088009062e-06 1.5631810509146438e-05 1.6057124104926008e-05  -4.8994787139927019e-06 2.1239074737029283e-05 1.7592411801531575e-05  -2.3617233759475884e-06 2.7302605695954008e-05 1.9215519500043438e-05  1.6496674106309012e-07 3.3099656230003906e-05 2.0823964992522532e-05  2.8304109481319097e-06 3.8269338146361995e-05 2.2309277448967666e-05  5.5572271102713286e-06 4.3103400454538037e-05 2.3614094749598027e-05  8.3618217371603303e-06 4.5885101187480316e-05 2.5589957111041997e-05  1.0819992222525638e-05 4.6750957924285363e-05 2.6789475208214972e-05  1.2688967022392095e-05 4.4668170554094292e-05 2.7958640895877630e-05  1.4475651698516308e-05 3.8765745518378563e-05 3.0051736793585938e-05  1.5553334586602360e-05 2.9609624074701805e-05 3.1250765830687569e-05  1.6371134819566121e-05 1.6050545263150339e-05 3.1377933920931490e-05  1.6452948242850249e-05 -7.9239435748886463e-07 3.1917162929575023e-05  1.5719339434451632e-05 -2.1200428795694298e-05 3.2824101586169865e-05  1.4701466791866127e-05 -4.4342881834550622e-05 3.3753203691573225e-05  1.3167552587455670e-05 -6.9684479734536187e-05 3.5116902340886249e-05  1.1984930867301592e-05 -9.5951774166143643e-05 3.6130444035072418e-05  1.0511458713186305e-05 -1.2174808984341079e-04 3.7027388523163887e-05  9.7623853089997576e-06 -1.4630775117396277e-04 3.8340741732588600e-05  9.4631410340207731e-06 -1.6751077253721112e-04 3.8480450967056799e-05  9.0371057375248727e-06 -1.8454795148972774e-04 3.7354618714091356e-05  9.7837541365198664e-06 -1.9729439658227346e-04 3.8873671112962449e-05  1.2164678960434093e-05 -2.0179958398110619e-04 3.9566155508798242e-05  1.5916192959448060e-05 -2.0240112056079488e-04 3.9960002256325610e-05  1.9099144609608184e-05 -1.9715960700889405e-04 4.0619453263812766e-05  2.4784995378908599e-05 -1.8785013421638048e-04 4.2739846740973946e-05  3.0967767726754541e-05 -1.7154233915929386e-04 4.2934486746319654e-05  3.7723738928205277e-05 -1.5284943875301546e-04 4.4422841260763121e-05  4.5031320770017722e-05 -1.3263936056037923e-04 4.5230163816333808e-05  5.2635061531533232e-05 -1.1008897620937594e-04 4.5012504458658238e-05  6.0704690562219522e-05 -8.5639377545863900e-05 4.5708452522238726e-05  6.9073925131528588e-05 -5.9242509591577607e-05 4.6818755210997747e-05  7.8132332870635884e-05 -3.0946910732167007e-05 4.7094335747251622e-05  8.7464941207475498e-05 1.1683477134003000e-06 4.6603609036736924e-05  9.7975051959713655e-05 3.6492252620038165e-05 4.7674746914809737e-05  1.0865843521086273e-04 7.6078491099886220e-05 4.6573370196252094e-05  1.1931170718526130e-04 1.1876121568201600e-04 4.6559650952645329e-05  1.3125367437592347e-04 1.6467303380747676e-04 4.6767000599268446e-05  1.4301999152803463e-04 2.1287341774113994e-04 4.7281825788857932e-05  1.5534237820322757e-04 2.6398750821499090e-04 4.7233555276015469e-05  1.6794145373723597e-04 3.1582491753675689e-04 4.7172986690127296e-05  1.8056320375287843e-04 3.6861646462969767e-04 4.7848835209383933e-05  1.9389754027548438e-04 4.2270512567050156e-04 4.8151157243542006e-05  2.0740365826207882e-04 4.7856472519321755e-04 4.8968808522309782e-05  2.2190842237263894e-04 5.3573894172510850e-04 4.9463495808846315e-05  2.3689109656603442e-04 5.9400740798068495e-04 5.0186800400578068e-05  2.4624706619948475e-04 6.6114040299079498e-04 6.9524020773350908e-06  2.4383257901301403e-04 6.7330084316011469e-04 -1.3874451037876207e-05  2.4188184039801520e-04 6.8536530810137445e-04 -2.6867073890006122e-05  2.4094285128635858e-04 6.9774220342690683e-04 -3.6962887258557833e-05  2.4110034356939657e-04 7.1116737367340858e-04 -4.5222961612143701e-05  2.4189844644460906e-04 7.2479399575159961e-04 -5.2495413322061260e-05  2.4328419722258605e-04 7.3840435643200317e-04 -5.8652643028929874e-05  2.4530860954783686e-04 7.5188763769044311e-04 -6.4597162674048621e-05  2.4731642222338416e-04 7.6496600918972988e-04 -6.9775369501957421e-05  2.4983576644166682e-04 7.7745853487971091e-04 -7.4404003306181651e-05  2.5277922138979621e-04 7.8931858426429960e-04 -7.8584262731493942e-05  2.5530216645230339e-04 8.0065265881430574e-04 -8.2506920615439187e-05  2.5799751523252092e-04 8.1159449028508717e-04 -8.6370881186102508e-05  2.6064062866622642e-04 8.2199004785655561e-04 -8.9713304022158265e-05  2.6321181082675715e-04 8.3175203371076460e-04 -9.2981961504662195e-05  2.6594367327327284e-04 8.4132587188306496e-04 -9.5773365718820861e-05  2.6809923491761156e-04 8.4993327638404996e-04 -9.8055259955122690e-05  2.7083911475731854e-04 8.5882684668360033e-04 -1.0003873361521990e-04  2.7275636769925535e-04 8.6675614453059311e-04 -1.0149528576161458e-04  2.7512953353817131e-04 8.7410601894590911e-04 -1.0206478540402723e-04  2.7735966162845799e-04 8.8049634067365707e-04 -1.0196144672305013e-04  2.7933697629921339e-04 8.8612761467885351e-04 -1.0099690021976792e-04  2.8114304961895730e-04 8.9064622392118437e-04 -9.9530300463091857e-05  2.8255709926369488e-04 8.9455755720250119e-04 -9.7102295318741107e-05  2.8400170874329759e-04 8.9797654373934368e-04 -9.4314494006196632e-05  2.8543674571540167e-04 9.0119017437443043e-04 -9.1257206873944689e-05  2.8682582819676919e-04 9.0450980137194792e-04 -8.7715627552408852e-05  2.8856260249213574e-04 9.0859021780196204e-04 -8.3786147151767673e-05  2.9096626580013633e-04 9.1394065318722590e-04 -8.0129694325612025e-05  2.9391978076347179e-04 9.2115410949692637e-04 -7.6752025383115680e-05  2.9945032167478071e-04 9.3134031749406100e-04 -7.3580074404639822e-05  3.0646447925600608e-04 9.4452159215010307e-04 -7.0649174053924601e-05  3.1735372547201339e-04 9.6227472261819157e-04 -6.7962776924681108e-05  -2.7936612844129890e-07 6.4122932011803976e-08 3.1124970290481898e-07  -3.8424651705094652e-07 7.3273935982751131e-08 5.1264624806454351e-07  -4.9296363844924034e-07 8.7353859054431721e-08 7.1190880027339065e-07  -5.7470230193870051e-07 9.7269769724676066e-08 8.8996398808353764e-07  -6.5870019621974736e-07 1.0710138581067269e-07 1.0810968315375944e-06  -7.4291346090008975e-07 1.2438822378090496e-07 1.2553420851989506e-06  -8.3782513666683639e-07 1.4585269736542528e-07 1.4505503457298058e-06  -9.3813652779899306e-07 1.6842721529933548e-07 1.6471522083722216e-06  -1.0520668079640601e-06 1.9482839767090757e-07 1.8473936264686759e-06  -1.1785334012931966e-06 2.2019019597312021e-07 2.0521147398816148e-06  -1.3166996943164593e-06 2.4675583551052179e-07 2.2528216259845693e-06  -1.4675380344841321e-06 2.7332489177917557e-07 2.4479742931857123e-06  -1.6318864477330014e-06 3.0214200825974965e-07 2.6291124570090130e-06  -1.8133216521295991e-06 3.3776226278000048e-07 2.8357423143932191e-06  -2.0140976036944156e-06 3.7081577803138873e-07 3.0510703064485967e-06  -2.2387467885218707e-06 4.0209567875132953e-07 3.2403527508638515e-06  -2.4681501666102057e-06 4.3524474430348770e-07 3.4279378258185838e-06  -2.7071972092379756e-06 4.6994947760035393e-07 3.6272738701729373e-06  -2.9795124381601913e-06 5.0582202705181328e-07 3.7839160829222706e-06  -3.2685341642416775e-06 5.4639811810097800e-07 3.9506640390253964e-06  -3.5776480203212982e-06 5.9103169259243783e-07 4.0912229168233046e-06  -3.8973895822926226e-06 6.3993499393471874e-07 4.2186952424958923e-06  -4.2305443554759441e-06 6.8934868551000702e-07 4.3447539159673033e-06  -4.5869066797771920e-06 7.3160819354428144e-07 4.4327182277421602e-06  -4.9572625187281550e-06 7.9103239524093642e-07 4.4903914673142550e-06  -5.3364591947051376e-06 8.6165732977913050e-07 4.5061755619159178e-06  -5.7279442248047280e-06 9.3995422341025063e-07 4.4853191535463146e-06  -6.1126838879140193e-06 1.0378115169417906e-06 4.4082978750274759e-06  -6.5272270445407452e-06 1.1615426109323713e-06 4.2637090721255771e-06  -6.9439652615622122e-06 1.2929438067475756e-06 4.0779543230212268e-06  -7.3503296993674717e-06 1.4310571616158159e-06 3.8262050669926153e-06  -7.7676195210775678e-06 1.5747184830330503e-06 3.5474463490222041e-06  -8.1277507695881576e-06 1.7450642783355318e-06 3.1584381734492688e-06  -8.5086669555980095e-06 1.9301940664022196e-06 2.6899533457513226e-06  -8.8851234789083714e-06 2.1098287149356312e-06 2.1979150450647608e-06  -9.2287383502789074e-06 2.2909927152003412e-06 1.5863414270802392e-06  -9.4784171314856821e-06 2.4657856426329038e-06 8.0774769341375295e-07  -9.7862386839348307e-06 2.4362968367378892e-06 -5.2976985232965398e-08  -1.0049656091593724e-05 2.3251451915761587e-06 -1.0315395852276750e-06  -1.0326629468071814e-05 2.1092673666060117e-06 -2.0088352637939437e-06  -1.0532383435369310e-05 1.7599815664882045e-06 -3.2022237753770702e-06  -1.0756358075813790e-05 1.0955345313238391e-06 -4.4450695853186302e-06  -1.0979081597987931e-05 -9.7349089913829170e-09 -5.8251080014475663e-06  -1.1232368792644569e-05 -1.4620807185860868e-06 -7.2845342224180990e-06  -1.1404638275715916e-05 -2.9151901064455465e-06 -8.6957473705222357e-06  -1.1496023895269769e-05 -4.6697507719244187e-06 -1.0304726388328947e-05  -1.1515420767343864e-05 -6.3530217418890720e-06 -1.1847683387950626e-05  -1.1484551699948835e-05 -8.1691697479869400e-06 -1.3474002927909458e-05  -1.1336088214283967e-05 -9.8612254739222318e-06 -1.5046287314425348e-05  -1.1123567624704731e-05 -1.1400231134315285e-05 -1.6613755213350120e-05  -1.0741972547563929e-05 -1.2579797599535732e-05 -1.8206883334657466e-05  -1.0089949536897172e-05 -1.3168368723057881e-05 -1.9984073316405359e-05  -9.2114571918532731e-06 -1.2498682172204710e-05 -2.1102624850386990e-05  -7.3512242966711551e-06 -8.9215571589921806e-06 -2.2966258291482810e-05  -5.0107193860379665e-06 -2.9710726774972254e-06 -2.4717031438787989e-05  -2.5390131845506863e-06 3.2718690636676492e-06 -2.6420264908772603e-05  1.1331026776126804e-06 1.3691232049878854e-05 -2.8259724912141326e-05  5.4734852988794049e-06 2.6039642401082984e-05 -3.0354722910974051e-05  9.8042467655536099e-06 3.8905265254540678e-05 -3.2421342132834914e-05  1.4295241103205725e-05 5.2506694906200997e-05 -3.4815884991565238e-05  2.1121223955567487e-05 7.0881691114928173e-05 -3.8144354485192975e-05  2.7558362816001875e-05 8.6749580622382346e-05 -4.1598220327373524e-05  3.1655156633480418e-05 9.4497927115802112e-05 -4.4829774719460269e-05  3.6132111894384762e-05 1.0068510020511355e-04 -4.8219610711258549e-05  4.0975644105136841e-05 1.0513387721949988e-04 -5.2044757017248256e-05  4.3852438538665112e-05 9.8821063377387981e-05 -5.6477071629816920e-05  4.3495732546959815e-05 7.8882316065479258e-05 -6.0756593436899121e-05  4.3498391912501132e-05 5.7146310317976141e-05 -6.4976303872688930e-05  3.6809410123256116e-05 1.3373759637641226e-05 -6.9540339020414716e-05  2.8483755436163357e-05 -4.5796342043041087e-05 -7.1676868996968957e-05  2.1032260496073722e-05 -1.0573629498214038e-04 -7.3052004406484934e-05  1.2815192418060648e-05 -1.6834634925272807e-04 -7.3205565524953352e-05  2.9640468892547427e-06 -2.3175941134530539e-04 -7.2807347396713551e-05  -6.3141239377239016e-06 -2.9471649554249835e-04 -7.2183226233150740e-05  -1.8018426032496176e-05 -3.6096558259002932e-04 -6.8415301080094478e-05  -2.6267029113982192e-05 -4.0568578146451623e-04 -6.1766876758648286e-05  -2.2268924770982709e-05 -4.0426858958495394e-04 -5.9303623516491359e-05  -1.3976933191372776e-05 -3.7263790758063775e-04 -5.5939972397752516e-05  -3.6774899773820207e-06 -3.2806862334338260e-04 -5.2563078494182804e-05  1.9715343173101772e-05 -2.4688337664071226e-04 -4.5931604649271235e-05  4.3568141286513319e-05 -1.4473511579681772e-04 -4.4721312911326869e-05  6.7619979372776837e-05 -4.2660594427232644e-05 -4.4110776789644479e-05  9.1400395143724638e-05 5.7504269149065093e-05 -4.3946851054436392e-05  1.0967879031285752e-04 1.3523811632760335e-04 -4.9011628610015666e-05  1.2071678104224270e-04 1.7833674419366483e-04 -5.2232284650445939e-05  1.2589665630118952e-04 2.0468023478879846e-04 -5.4804769230559349e-05  1.3249500198099517e-04 2.2959220761026338e-04 -5.5913145629058601e-05  1.3996504314440066e-04 2.5853674959963824e-04 -5.5565201226358290e-05  1.4702855645460982e-04 2.9232621861848695e-04 -5.2437402008212919e-05  1.5972049622994488e-04 3.4552722960636678e-04 -5.0229432162344996e-05  1.7776998400444269e-04 4.2359191993677836e-04 -5.0202365826789764e-05  1.9752256370834928e-04 5.0526456812700839e-04 -4.9338514936175312e-05  2.1243057422361917e-04 5.7655315525495597e-04 -5.0858687523952862e-05  2.2802267826939571e-04 6.3842898389690527e-04 -5.3089839630849256e-05  2.4310711309952224e-04 7.0156097289361858e-04 -5.5456170204763334e-05  2.5766029593815977e-04 7.5818016242439772e-04 -5.7601530814694553e-05  2.7398763759516796e-04 8.2224167911857629e-04 -6.0111361922658720e-05  2.9343058722084792e-04 8.8969088798975849e-04 -6.1271660016745322e-05  0.0000000000000000e+00 0.0000000000000000e+00 0.0000000000000000e+00  0.0000000000000000e+00 0.0000000000000000e+00 0.0000000000000000e+00  0.0000000000000000e+00 0.0000000000000000e+00 0.0000000000000000e+00  0.0000000000000000e+00 0.0000000000000000e+00 0.0000000000000000e+00  0.0000000000000000e+00 0.0000000000000000e+00 0.0000000000000000e+00  0.0000000000000000e+00 0.0000000000000000e+00 0.0000000000000000e+00  0.0000000000000000e+00 0.0000000000000000e+00 0.0000000000000000e+00  0.0000000000000000e+00 0.0000000000000000e+00 0.0000000000000000e+00  0.0000000000000000e+00 0.0000000000000000e+00 0.0000000000000000e+00  0.0000000000000000e+00 0.0000000000000000e+00 0.0000000000000000e+00  0.0000000000000000e+00 0.0000000000000000e+00 0.0000000000000000e+00  0.0000000000000000e+00 0.0000000000000000e+00 0.0000000000000000e+00  0.0000000000000000e+00 0.0000000000000000e+00 0.0000000000000000e+00  0.0000000000000000e+00 0.000000000000000