<?xml version="1.0"?>
<VTKFile type="UnstructuredGrid"  version="0.1"  >
<UnstructuredGrid>
<Piece  NumberOfPoints="10957" NumberOfCells="41672">
<Points>
<DataArray  type="Float64"  NumberOfComponents="3"  format="ascii">0.9925137449997291 -0.03728888383758438 0  0.007586802157453682 0.1349677647109762 0  0.007586802157453682 0.1349677647109762 2.95  0.9925137450519488 -0.03728888386417941 2.95  0.9643989096501694 -0.02716704134803519 0  0.9360617343536817 -0.01768327665856045 0  0.9076023198175265 -0.00857299075128265 0  0.8790871331840997 0.0003614069448361137 0  0.8505080400473725 0.009090242106019955 0  0.8218484917797876 0.0175509659925942 0  0.7931649761035906 0.02592935040050181 0  0.764418986146959 0.03409177790458878 0  0.7355999411752842 0.04199208040343261 0  0.706731175369029 0.04970752442632946 0  0.6778150466362781 0.05724422177386088 0  0.6488235004287045 0.06448534614328195 0  0.6197762269986674 0.07150054499793095 0  0.5906691301945188 0.07826269316251469 0  0.5614959755933637 0.08473383882735666 0  0.5322596382677409 0.09091321471851833 0  0.5029835339452652 0.09690037660788667 0  0.4736699718296479 0.1027023189330479 0  0.4443098233029065 0.1082645407993157 0  0.4149010073711484 0.1135628320994786 0  0.3854783433069935 0.1187834305436249 0  0.3560099120866912 0.1237401372022409 0  0.3265194297032009 0.1285612560788899 0  0.2969990933156311 0.1331978653889243 0  0.2674324755030887 0.1375295585331712 0  0.2378244583146815 0.1415687425006859 0  0.2081641615162468 0.1452020213412918 0  0.178471661952439 0.1485620625312685 0  0.1487339230235372 0.1514955168237853 0  0.1189428323115893 0.1538263087404927 0  0.08910021994414483 0.1553171437333857 0  0.05922253747548557 0.1554056076484339 0  0.02955586583595391 0.1522076925616009 0  0.007586802157453682 0.1349677647109762 0.02979797979797998  0.007586802157453682 0.1349677647109762 0.05959595959595964  0.007586802157453682 0.1349677647109762 0.08939393939393964  0.007586802157453682 0.1349677647109762 0.1191919191919193  0.007586802157453682 0.1349677647109762 0.1489898989898993  0.007586802157453682 0.1349677647109762 0.1787878787878789  0.007586802157453682 0.1349677647109762 0.2085858585858589  0.007586802157453682 0.1349677647109762 0.2383838383838386  0.007586802157453682 0.1349677647109762 0.2681818181818186  0.007586802157453682 0.1349677647109762 0.2979797979797985  0.007586802157453682 0.1349677647109762 0.3277777777777782  0.007586802157453682 0.1349677647109762 0.3575757575757582  0.007586802157453682 0.1349677647109762 0.3873737373737379  0.007586802157453682 0.1349677647109762 0.4171717171717177  0.007586802157453682 0.1349677647109762 0.4469696969696978  0.007586802157453682 0.1349677647109762 0.4767676767676775  0.007586802157453682 0.1349677647109762 0.5065656565656572  0.007586802157453682 0.1349677647109762 0.5363636363636372  0.007586802157453682 0.1349677647109762 0.5661616161616171  0.007586802157453682 0.1349677647109762 0.5959595959595968  0.007586802157453682 0.1349677647109762 0.6257575757575764  0.007586802157453682 0.1349677647109762 0.6555555555555564  0.007586802157453682 0.1349677647109762 0.685353535353536  0.007586802157453682 0.1349677647109762 0.7151515151515156  0.007586802157453682 0.1349677647109762 0.7449494949494957  0.007586802157453682 0.1349677647109762 0.7747474747474754  0.007586802157453682 0.1349677647109762 0.8045454545454551  0.007586802157453682 0.1349677647109762 0.8343434343434349  0.007586802157453682 0.1349677647109762 0.864141414141415  0.007586802157453682 0.1349677647109762 0.8939393939393944  0.007586802157453682 0.1349677647109762 0.9237373737373743  0.007586802157453682 0.1349677647109762 0.9535353535353542  0.007586802157453682 0.1349677647109762 0.9833333333333343  0.007586802157453682 0.1349677647109762 1.013131313131314  0.007586802157453682 0.1349677647109762 1.042929292929294  0.007586802157453682 0.1349677647109762 1.072727272727274  0.007586802157453682 0.1349677647109762 1.102525252525254  0.007586802157453682 0.1349677647109762 1.132323232323233  0.007586802157453682 0.1349677647109762 1.162121212121214  0.007586802157453682 0.1349677647109762 1.191919191919194  0.007586802157453682 0.1349677647109762 1.221717171717173  0.007586802157453682 0.1349677647109762 1.251515151515154  0.007586802157453682 0.1349677647109762 1.281313131313133  0.007586802157453682 0.1349677647109762 1.311111111111113  0.007586802157453682 0.1349677647109762 1.340909090909093  0.007586802157453682 0.1349677647109762 1.370707070707073  0.007586802157453682 0.1349677647109762 1.400505050505053  0.007586802157453682 0.1349677647109762 1.430303030303033  0.007586802157453682 0.1349677647109762 1.460101010101013  0.007586802157453682 0.1349677647109762 1.489898989898993  0.007586802157453682 0.1349677647109762 1.519696969696973  0.007586802157453682 0.1349677647109762 1.549494949494953  0.007586802157453682 0.1349677647109762 1.579292929292933  0.007586802157453682 0.1349677647109762 1.609090909090912  0.007586802157453682 0.1349677647109762 1.638888888888892  0.007586802157453682 0.1349677647109762 1.668686868686872  0.007586802157453682 0.1349677647109762 1.698484848484852  0.007586802157453682 0.1349677647109762 1.728282828282832  0.007586802157453682 0.1349677647109762 1.758080808080812  0.007586802157453682 0.1349677647109762 1.787878787878792  0.007586802157453682 0.1349677647109762 1.817676767676772  0.007586802157453682 0.1349677647109762 1.847474747474752  0.007586802157453682 0.1349677647109762 1.877272727272732  0.007586802157453682 0.1349677647109762 1.907070707070711  0.007586802157453682 0.1349677647109762 1.936868686868692  0.007586802157453682 0.1349677647109762 1.966666666666672  0.007586802157453682 0.1349677647109762 1.996464646464651  0.007586802157453682 0.1349677647109762 2.02626262626263  0.007586802157453682 0.1349677647109762 2.05606060606061  0.007586802157453682 0.1349677647109762 2.08585858585859  0.007586802157453682 0.1349677647109762 2.115656565656569  0.007586802157453682 0.1349677647109762 2.145454545454549  0.007586802157453682 0.1349677647109762 2.175252525252528  0.007586802157453682 0.1349677647109762 2.205050505050509  0.007586802157453682 0.1349677647109762 2.234848484848488  0.007586802157453682 0.1349677647109762 2.264646464646468  0.007586802157453682 0.1349677647109762 2.294444444444448  0.007586802157453682 0.1349677647109762 2.324242424242427  0.007586802157453682 0.1349677647109762 2.354040404040407  0.007586802157453682 0.1349677647109762 2.383838383838387  0.007586802157453682 0.1349677647109762 2.413636363636366  0.007586802157453682 0.1349677647109762 2.443434343434345  0.007586802157453682 0.1349677647109762 2.473232323232325  0.007586802157453682 0.1349677647109762 2.503030303030305  0.007586802157453682 0.1349677647109762 2.532828282828285  0.007586802157453682 0.1349677647109762 2.562626262626264  0.007586802157453682 0.1349677647109762 2.592424242424244  0.007586802157453682 0.1349677647109762 2.622222222222224  0.007586802157453682 0.1349677647109762 2.652020202020203  0.007586802157453682 0.1349677647109762 2.681818181818182  0.007586802157453682 0.1349677647109762 2.711616161616162  0.007586802157453682 0.1349677647109762 2.741414141414142  0.007586802157453682 0.1349677647109762 2.771212121212121  0.007586802157453682 0.1349677647109762 2.801010101010102  0.007586802157453682 0.1349677647109762 2.830808080808081  0.007586802157453682 0.1349677647109762 2.860606060606061  0.007586802157453682 0.1349677647109762 2.89040404040404  0.007586802157453682 0.1349677647109762 2.92020202020202  0.02955586665970645 0.152207692743969 2.95  0.0592225391622407 0.1554056076997827 2.95  0.08910022247431289 0.1553171436543912 2.95  0.1189428356790401 0.1538263085106716 2.95  0.1487339272258054 0.1514955164485778 2.95  0.1784716669857977 0.1485620619846548 2.95  0.2081641673828153 0.1452020206530984 2.95  0.2378244650101828 0.1415687416400932 2.95  0.2674324830262811 0.1375295574952611 2.95  0.2969991016635551 0.1331978641562543 2.95  0.3265194388709149 0.1285612546257254 2.95  0.3560099220724205 0.1237401355215495 2.95  0.3854783541254482 0.1187834287283932 2.95  0.4149010190000992 0.113562830018489 2.95  0.4443098357391194 0.1082645384431056 2.95  0.4736699850933383 0.1027023164111393 2.95  0.5029835480169053 0.09690037382073331 2.95  0.5322596531280808 0.09091321157617849 2.95  0.5614959912517894 0.08473383538307885 2.95  0.590669146638386 0.07826268936393518 2.95  0.6197762442228643 0.07150054083737761 2.95  0.6488235184809702 0.06448534181312304 2.95  0.677815065462649 0.05724421705657579 2.95  0.7067311949546904 0.04970751927410625 2.95  0.7355999615241583 0.04199207483830233 2.95  0.7644190072646493 0.03409177195406968 2.95  0.7931649980312939 0.02592934421293083 2.95  0.8218485144464328 0.01755095932049689 2.95  0.8505080634672842 0.009090235007654539 2.95  0.8790871574001908 0.0003613995875277054 2.95  0.9076023447508066 -0.008572998642740692 2.95  0.9360617600175944 -0.01768328503285081 2.95  0.9643989359861183 -0.02716705036944823 2.95  0.9925137450002565 -0.037288883837853 0.02979797979797999  0.992513745000784 -0.03728888383812164 0.05959595959595966  0.9925137450013115 -0.03728888383839029 0.08939393939393965  0.992513745001839 -0.03728888383865891 0.1191919191919193  0.9925137450023664 -0.03728888383892755 0.1489898989898993  0.9925137450028939 -0.0372888838391962 0.178787878787879  0.9925137450034214 -0.03728888383946482 0.2085858585858589  0.9925137450039488 -0.03728888383973347 0.2383838383838386  0.9925137450044763 -0.03728888384000211 0.2681818181818186  0.9925137450050038 -0.03728888384027073 0.2979797979797986  0.9925137450055312 -0.03728888384053938 0.3277777777777782  0.9925137450060587 -0.03728888384080802 0.3575757575757582  0.9925137450065862 -0.03728888384107667 0.3873737373737379  0.9925137450071136 -0.03728888384134529 0.4171717171717179  0.9925137450076411 -0.03728888384161392 0.4469696969696979  0.9925137450081686 -0.03728888384188257 0.4
[...]
<PointData  Vectors="Displacement"> 
<DataArray  type="Float64"  Name="Displacement"  NumberOfComponents="3" format="ascii">0.0000000000000000e+00 0.0000000000000000e+00 0.0000000000000000e+00  0.0000000000000000e+00 0.0000000000000000e+00 0.0000000000000000e+00  1.5019381240186868e-03 3.2940117848646649e-03 1.8581010756553467e-04  1.4152613033081114e-03 2.7631327474435634e-03 -2.6192590870190781e-04  0.0000000000000000e+00 0.0000000000000000e+00 0.0000000000000000e+00  0.0000000000000000e+00 0.0000000000000000e+00 0.0000000000000000e+00  0.0000000000000000e+00 0.0000000000000000e+00 0.0000000000000000e+00  0.0000000000000000e+00 0.0000000000000000e+00 0.0000000000000000e+00  0.0000000000000000e+00 0.0000000000000000e+00 0.0000000000000000e+00  0.0000000000000000e+00 0.0000000000000000e+00 0.0000000000000000e+00  0.0000000000000000e+00 0.0000000000000000e+00 0.0000000000000000e+00  0.0000000000000000e+00 0.0000000000000000e+00 0.0000000000000000e+00  0.0000000000000000e+00 0.0000000000000000e+00 0.0000000000000000e+00  0.0000000000000000e+00 0.0000000000000000e+00 0.0000000000000000e+00  0.0000000000000000e+00 0.0000000000000000e+00 0.0000000000000000e+00  0.0000000000000000e+00 0.0000000000000000e+00 0.0000000000000000e+00  0.0000000000000000e+00 0.0000000000000000e+00 0.0000000000000000e+00  0.0000000000000000e+00 0.0000000000000000e+00 0.0000000000000000e+00  0.0000000000000000e+00 0.0000000000000000e+00 0.0000000000000000e+00  0.0000000000000000e+00 0.0000000000000000e+00 0.0000000000000000e+00  0.0000000000000000e+00 0.0000000000000000e+00 0.0000000000000000e+00  0.0000000000000000e+00 0.0000000000000000e+00 0.0000000000000000e+00  0.0000000000000000e+00 0.0000000000000000e+00 0.0000000000000000e+00  0.0000000000000000e+00 0.0000000000000000e+00 0.0000000000000000e+00  0.0000000000000000e+00 0.0000000000000000e+00 0.0000000000000000e+00  0.0000000000000000e+00 0.0000000000000000e+00 0.0000000000000000e+00  0.0000000000000000e+00 0.0000000000000000e+00 0.0000000000000000e+00  0.0000000000000000e+00 0.0000000000000000e+00 0.0000000000000000e+00  0.0000000000000000e+00 0.0000000000000000e+00 0.0000000000000000e+00  0.0000000000000000e+00 0.0000000000000000e+00 0.0000000000000000e+00  0.0000000000000000e+00 0.0000000000000000e+00 0.0000000000000000e+00  0.0000000000000000e+00 0.0000000000000000e+00 0.0000000000000000e+00  0.0000000000000000e+00 0.0000000000000000e+00 0.0000000000000000e+00  0.0000000000000000e+00 0.0000000000000000e+00 0.0000000000000000e+00  0.0000000000000000e+00 0.0000000000000000e+00 0.0000000000000000e+00  0.0000000000000000e+00 0.0000000000000000e+00 0.0000000000000000e+00  0.0000000000000000e+00 0.0000000000000000e+00 0.0000000000000000e+00  1.6228866562174834e-06 -1.6957200148854390e-06 2.5915203509387565e-06  1.0905179038004286e-06 -8.6463410377546905e-06 4.2240386210036210e-06  -6.0684107939733998e-07 -1.9312838891046890e-05 7.2164552265634347e-06  -2.6606223149033444e-06 -3.5612565553633477e-05 1.0373389478592346e-05  -5.6486155075837921e-06 -5.4373094872578539e-05 1.2978051270248997e-05  -8.5898928495174528e-06 -7.6547652107082089e-05 1.5230174321530116e-05  -1.1736638056378958e-05 -1.0051294493167864e-04 1.7839375221670473e-05  -1.5171586268275183e-05 -1.2648012867185854e-04 2.0816948307613196e-05  -1.8877087202707683e-05 -1.5429437005084264e-04 2.3951222628568939e-05  -2.2338158589677803e-05 -1.8384576537501719e-04 2.7269386027498716e-05  -2.5972794450845524e-05 -2.1466317840915933e-04 3.0965936734770974e-05  -2.9422400841119849e-05 -2.4662033993169013e-04 3.4318288953129672e-05  -3.2565141204993943e-05 -2.7896532929585284e-04 3.7735661949572640e-05  -3.5486000855381174e-05 -3.1144594838604833e-04 4.1279786518112807e-05  -3.7993366224412687e-05 -3.4392181894931550e-04 4.4863638653217802e-05  -4.0081073504958384e-05 -3.7524979378442206e-04 4.8282362345260943e-05  -4.1666282859821392e-05 -4.0533690081651243e-04 5.1987599323581698e-05  -4.2696419142276421e-05 -4.3454962670802879e-04 5.5587194204663955e-05  -4.3153455557325422e-05 -4.6188990124940523e-04 5.9042447097895688e-05  -4.3083134789971482e-05 -4.8740001033444064e-04 6.2600102769555836e-05  -4.2049102079569776e-05 -5.1200381811118776e-04 6.6530282060724930e-05  -4.0827436783164318e-05 -5.3440495111005220e-04 6.9525349900695165e-05  -3.9100272087157006e-05 -5.5559331206526898e-04 7.3125438236687867e-05  -3.6544986331460924e-05 -5.7536448583349385e-04 7.6650901894214266e-05  -3.3479715227806555e-05 -5.9270391500230004e-04 7.9985825554966837e-05  -2.9669150497897283e-05 -6.0723785387336465e-04 8.3709578487482303e-05  -2.5201933338148512e-05 -6.1947908958382932e-04 8.6489452517556078e-05  -1.9918493191533248e-05 -6.2963569827467931e-04 8.9397918959436770e-05  -1.4187983915474431e-05 -6.3692544689499604e-04 9.3315539666664543e-05  -7.8016251893493822e-06 -6.4224876515191741e-04 9.5942274570143555e-05  -4.7703579717678138e-07 -6.4366217925819686e-04 9.9605300461040413e-05  7.7089519654610057e-06 -6.4218972247502310e-04 1.0215806954494438e-04  1.6310076087933305e-05 -6.3804919803662563e-04 1.0521808549255564e-04  2.5925326965576267e-05 -6.3186147513117285e-04 1.0811654810801917e-04  3.5714693957739394e-05 -6.2265623896327156e-04 1.1093780763312444e-04  4.6508109418664900e-05 -6.1149787426500513e-04 1.1319816058985443e-04  5.7546915601325837e-05 -5.9852899246499492e-04 1.1609612162940848e-04  6.9231537063531182e-05 -5.8362290398551253e-04 1.1874444562231443e-04  8.1123461963045660e-05 -5.6736959473904281e-04 1.2202010403408057e-04  9.3814519571823452e-05 -5.5000694260031152e-04 1.2473898083146910e-04  1.0670768027002691e-04 -5.3173807782817774e-04 1.2724461790603771e-04  1.1999171696802081e-04 -5.1274426849756151e-04 1.2980000397601798e-04  1.3377823817249009e-04 -4.9277715809139568e-04 1.3230365950694242e-04  1.4800869335643819e-04 -4.7171472650591438e-04 1.3391969811494070e-04  1.6211881815100153e-04 -4.4919200601256789e-04 1.3642625299348547e-04  1.7683100242251330e-04 -4.2552970999292715e-04 1.3870699305005492e-04  1.9206418965345246e-04 -4.0078490935031044e-04 1.4110315777726164e-04  2.0773792774022307e-04 -3.7380456340249332e-04 1.4325999180664481e-04  2.2389334207372689e-04 -3.4544567280028022e-04 1.4510097893083763e-04  2.4020038238977627e-04 -3.1612988466080946e-04 1.4720321332482508e-04  2.5693201262036078e-04 -2.8511937828969673e-04 1.4905272241864506e-04  2.7405637114501566e-04 -2.5291997313887102e-04 1.5086433626605635e-04  2.9137188321030037e-04 -2.1972043274036954e-04 1.5268302126302980e-04  3.0894929914098790e-04 -1.8617784735993760e-04 1.5437491965916312e-04  3.2676377490720946e-04 -1.5165583418571136e-04 1.5605574280613284e-04  3.4465546051210677e-04 -1.1689983796425459e-04 1.5759432207242350e-04  3.6302967902486450e-04 -8.1299448312335465e-05 1.5911366749350413e-04  3.8133812379791593e-04 -4.5156546992723949e-05 1.6073651571862389e-04  4.0020396027415258e-04 -7.0688781484890609e-06 1.6167741895417096e-04  4.1934708974376036e-04 3.2731136520423508e-05 1.6339039809556798e-04  4.3921680197315138e-04 7.5191164197725477e-05 1.6486246734042520e-04  4.5957242606628170e-04 1.2114724706967192e-04 1.6522722092521762e-04  4.8065700986236993e-04 1.7014721506482461e-04 1.6638691442676196e-04  5.0221094653202139e-04 2.2382074104057337e-04 1.6876049845258986e-04  5.2483568161072844e-04 2.8124514850184988e-04 1.7065967646397406e-04  5.4864261922804830e-04 3.4325645143420578e-04 1.7193224591404349e-04  5.7330395380510613e-04 4.0907197522636153e-04 1.7322276352746990e-04  5.9861022802729579e-04 4.7924258905972049e-04 1.7350764403090260e-04  6.2420277298593960e-04 5.5327103943956526e-04 1.7440689464351354e-04  6.5071547235416442e-04 6.2966781029360314e-04 1.7523436617145787e-04  6.7727380601765566e-04 7.0827200484434229e-04 1.7596871242147409e-04  7.0472079457011374e-04 7.8890464659571934e-04 1.7621838818212762e-04  7.3241584430021106e-04 8.7123529720978948e-04 1.7609266022906752e-04  7.5976093109147915e-04 9.5513430107116253e-04 1.7708781995191380e-04  7.8754091501995313e-04 1.0398974461680291e-03 1.7779912078461687e-04  8.1562993996446749e-04 1.1246687195849722e-03 1.7833287502843677e-04  8.4356339224817695e-04 1.2098067244233799e-03 1.7876931784653645e-04  8.7164900471595457e-04 1.2952861363222377e-03 1.7935382086496800e-04  8.9986983747339020e-04 1.3814051726302916e-03 1.7966873058224611e-04  9.2808269356852064e-04 1.4677615912584417e-03 1.8019899987743905e-04  9.5640973939974810e-04 1.5545720521109949e-03 1.8059018306826975e-04  9.8502926349223617e-04 1.6423876522024721e-03 1.8058657000729562e-04  1.0137769169699306e-03 1.7313238231974530e-03 1.8093635374447710e-04  1.0425419556208027e-03 1.8215734905316265e-03 1.8148094769756022e-04  1.0717644782392132e-03 1.9130773132961393e-03 1.8169710334013363e-04  1.1014674810219632e-03 2.0063404552140250e-03 1.8164499660034669e-04  1.1309213179883006e-03 2.1009827343714798e-03 1.8225823253561590e-04  1.1610712245169246e-03 2.1967322922446372e-03 1.8207515615566649e-04  1.1911703165630822e-03 2.2936876311243988e-03 1.8236946453949044e-04  1.2215773151048315e-03 2.3920288323201568e-03 1.8263160410042975e-04  1.2518704160530230e-03 2.4912784728404803e-03 1.8304191392582876e-04  1.2826866715884195e-03 2.5911329537421190e-03 1.8336757321060293e-04  1.3136047938138141e-03 2.6908498882208705e-03 1.8351694442029419e-04  1.3440266084411977e-03 2.7912537206553471e-03 1.8379539593378576e-04  1.3752555047223528e-03 2.8918326711132409e-03 1.8410766723809155e-04  1.4061052513057368e-03 2.9925803312518236e-03 1.8450579697500266e-04  1.4377097708081347e-03 3.0931988653686128e-03 1.8497255666938083e-04  1.4695430678649494e-03 3.1939217086109930e-03 1.8569207003685920e-04  1.5144201802150020e-03 3.2788012686518469e-03 1.0543745280605899e-04  1.5156062647218515e-03 3.2579783660306111e-03 6.3513377831379153e-05  1.5139011980926551e-03 3.2368701142677513e-03 3.4041581884388555e-05  1.5115260859134482e-03 3.2154309781027854e-03 9.3497770505484956e-06  1.5089854183844222e-03 3.1951515421386953e-03 -1.2057974581834895e-05  1.5059929151258185e-03 3.1748148419080786e-03 -3.1824679200319094e-05  1.5029872476386946e-03 3.1549618827194552e-03 -4.9552270518342694e-05  1.4997275640188338e-03 3.1352777334557385e-03 -6.6468144627096636e-05  1.4960369055586667e-03 3.1162515768978554e-03 -8.1457180535149130e-05  1.4922964059870783e-03 3.0972369052718798e-03 -9.5706271391059333e-05  1.4886751033180475e-03 3.0790544360603999e-03 -1.0892941612725738e-04  1.4849198255181084e-03 3.0611363015138103e-03 -1.2190272849633696e-04  1.4811114958323299e-03 3.0438244043446000e-03 -1.3403341787123743e-04  1.4775073699748358e-03 3.0271751519668831e-03 -1.4547193182804863e-04  1.4739794176708238e-03 3.0106414077123327e-03 -1.5682238324746288e-04  1.4704967241140269e-03 2.9949968348275836e-03 -1.6730380695996315e-04  1.4670299745822664e-03 2.9792364040747573e-03 -1.7702984037476350e-04  1.4637842962507822e-03 2.9640436208293970e-03 -1.8657016331880870e-04  1.4601895447446567e-03 2.9486322070708284e-03 -1.9516637443885696e-04  1.4568967476636069e-03 2.9334033392310588e-03 -2.0321561554986070e-04  1.4533992353499574e-03 2.9187593486872622e-03 -2.1024363019077517e-04  1.4499364124044550e-03 2.9037503603278991e-03 -2.1706668016885106e-04  1.4463616893025802e-03 2.8892352342461359e-03 -2.2278080601607778e-04  1.4425181694672181e-03 2.8742602200244553e-03 -2.2795574054517779e-04  1.4385930503913685e-03 2.8596402947578745e-03 -2.3257751345794406e-04  1.4349310949710163e-03 2.8457032711320220e-03 -2.3717014805249621e-04  1.4312489347399003e-03 2.8321442914281568e-03 -2.4132038248065739e-04  1.4276906723104674e-03 2.8187973642093038e-03 -2.4510830755098285e-04  1.4242841077089054e-03 2.8058360174911105e-03 -2.4889734258394752e-04  1.4209985493865199e-03 2.7940183192928362e-03 -2.5241233908027274e-04  1.4188561399905934e-03 2.7842652858846811e-03 -2.5565700608558371e-04  1.4175772137465796e-03 2.7761648644535602e-03 -2.5874155700866667e-04  1.4182078371817147e-03 2.7710140850905731e-03 -2.6139301302896485e-04  4.9047825079677015e-06 -3.0953274970946326e-06 -7.4272960224569245e-06  5.4986901898265825e-06 -9.9261853649665787e-06 -1.3291231430448095e-05  5.6702692570197108e-06 -1.8355211298801409e-05 -1.7955033229894442e-05  3.2889949590529749e-06 -3.7395184467736906e-05 -2.3613702967501882e-05  1.7779115283203657e-06 -5.8930672927121090e-05 -2.9023644449225368e-05  -4.4459991082904112e-06 -9.6368758873835743e-05 -3.7830037444786192e-05  -1.3227911499966118e-05 -1.4850894083747940e-04 -4.2974129595428693e-05  -2.3984214663136214e-05 -2.0893111180163277e-04 -4.7867185026533639e-05  -3.4633022252603188e-05 -2.7079779751755203e-04 -5.2276858697955134e-05  -4.3053909959218290e-05 -3.2696151176786351e-04 -5.7299819853746824e-05  -5.1060634162170824e-05 -3.8186797368429414e-04 -6.1684629609269479e-05  -5.7855529226160204e-05 -4.2970639774970353e-04 -6.4101862053068742e-05  -6.2785898488895050e-05 -4.7133995792796762e-04 -6.6682557423123200e-05  -6.6180616970265167e-05 -5.0787939386016793e-04 -7.0138946403509623e-05  -6.6908918667424376e-05 -5.3532311760446543e-04 -7.4063879869261474e-05  -6.7187475979159697e-05 -5.5976307661277365e-04 -7.8339280370400531e-05  -6.7329322368529242e-05 -5.8401389123848664e-04 -8.2680544520905431e-05  -6.7236598781808782e-05 -6.0731294909281838e-04 -8.7038387229930212e-05  -6.6654410513255431e-05 -6.2958712705961524e-04 -9.1436167428099823e-05  -6.5693256596316267e-05 -6.5156860731551151e-04 -9.6054730517326195e-05  -6.4584117642485153e-05 -6.7361168240924127e-04 -1.0055293891923954e-04  -6.3395101440085063e-05 -6.9572031524157464e-04 -1.0496639735525827e-04  -6.2259063159211396e-05 -7.1835971705447364e-04 -1.0924074317000061e-04  -6.0881174740106874e-05 -7.3999662841211144e-04 -1.1295848363861726e-04  -5.8449619174017487e-05 -7.5672803453094399e-04 -1.1641794347728325e-04  -5.2838326212033458e-05 -7.6533491060854050e-04 -1.1911516128691302e-04  -4.5872862082374356e-05 -7.6318788349075031e-04 -1.2106707022915257e-04  -3.4983867434531404e-05 -7.4961058116881528e-04 -1.2262716265987018e-04  -2.4207845584328317e-05 -7.2935248652604044e-04 -1.2613625874112968e-04  -1.2891100320723470e-05 -7.0558866942001545e-04 -1.3050919490539313e-04  5.1044332591744907e-07 -6.7547273647419520e-04 -1.3371900300931594e-04  1.3676710096120267e-05 -6.4428248995626158e-04 -1.3731557425839490e-04  3.0617762696662142e-05 -6.0247194086702615e-04 -1.4047330688123725e-04  4.6301121360666236e-05 -5.6163856813147908e-04 -1.4538451581832878e-04  6.2607381008651419e-05 -5.2277689844977982e-04 -1.5095150976493388e-04  7.7658890002858718e-05 -4.8644247263241857e-04 -1.5580976460806623e-04  9.3213951812768403e-05 -4.5865078463678931e-04 -1.6262874409078655e-04  1.0238420293470615e-04 -4.5131770800032223e-04 -1.6828508914805478e-04  1.1141474156657385e-04 -4.4692298089137045e-04 -1.7406936603882688e-04  1.1995323608503276e-04 -4.4603851100111864e-04 -1.7892328685445951e-04  1.2852970472293260e-04 -4.4674506479750164e-04 -1.8381854960457919e-04  1.3716911842933343e-04 -4.4885024694110324e-04 -1.8742415791681637e-04  1.4659551395056845e-04 -4.4897416106839814e-04 -1.9064326301667807e-04  1.5799393003690810e-04 -4.4101526597415183e-04 -1.9328388003978495e-04  1.7061176208913519e-04 -4.2733792460269315e-04 -1.9451585627265608e-04  1.8448072433680131e-04 -4.0702260726361601e-04 -1.9699591043497122e-04  1.9948751248813804e-04 -3.8243510310851563e-04 -2.0076738932775046e-04  2.1638531025805155e-04 -3.5236162215343379e-04 -2.0281543138761659e-04  2.3305768751907092e-04 -3.1996489814458957e-04 -2.0470430995566795e-04  2.5063386198734120e-04 -2.8260882255160685e-04 -2.0789237616010612e-04  2.6969766237939640e-04 -2.4343531967717787e-04 -2.1187339128160072e-04  2.8818020779722286e-04 -2.0519029966013268e-04 -2.1546960903500326e-04  3.0682759031982337e-04 -1.7064846034271170e-04 -2.2191450866078095e-04  3.2262655663253549e-04 -1.4661234956738728e-04 -2.2596929206813958e-04  3.3723093428768129e-04 -1.3181199006051652e-04 -2.2990719531136531e-04  3.5157232762177295e-04 -1.1805030501778456e-04 -2.3411282789876240e-04  3.6343213781367883e-04 -1.1683663748974876e-04 -2.3908142807780854e-04  3.7362830678428703e-04 -1.2317954678046187e-04 -2.4262114923566164e-04  3.8437092665011605e-04 -1.3135405341966057e-04 -2.4550841670276265e-04  3.9503898067623028e-04 -1.4141789018942591e-04 -2.4783094918765327e-04  4.0166127241517043e-04 -1.6095979417682222e-04 -2.4869772453859479e-04  4.0994003990572051e-04 -1.7444571537239849e-04 -2.4900851931681904e-04  4.2349739201256049e-04 -1.7224006233327265e-04 -2.4888151187192018e-04  4.3654570265145361e-04 -1.6712904319945450e-04 -2.4822650433538860e-04  4.4922236968931084e-04 -1.5875801810574585e-04 -2.4690376227673206e-04  4.6477046375791389e-04 -1.3535744542345172e-04 -2.4433750381809251e-04  4.8571444797150813e-04 -9.0903556822692603e-05 -2.4149581588518742e-04  5.0620739515236564e-04 -4.4276691141541040e-05 -2.3849390135147704e-04  5.3382423160644595e-04 2.7998439015550650e-05 -2.3390982868134658e-04  5.6463283126475866e-04 1.2563798684074928e-04 -2.3187550601576522e-04  5.9419593340002453e-04 2.2468832308798279e-04 -2.3043526333432448e-04  6.2471084513053587e-04 3.2705599677137831e-04 -2.2969598528570882e-04  6.5811966044341185e-04 4.3936124164207911e-04 -2.2901138350687111e-04  6.9076294095123309e-04 5.5273645187650460e-04 -2.2890173223410324e-04  7.2702186360061138e-04 6.7919812010020062e-04 -2.2813876385112275e-04  7.6563825846961032e-04 8.1558889950727337e-04 -2.2913439690545225e-04  8.0189327559478563e-04 9.4613435652410923e-04 -2.3001778577851078e-04  8.3725782251803306e-04 1.0694890985064715e-03 -2.3176622433407213e-04  8.7208067151845327e-04 1.1903563834935308e-03 -2.3379300988976592e-04  9.0521316150250579e-04 1.3036869057327313e-03 -2.3673951209110807e-04  9.3675253627354207e-04 1.4073822823246773e-03 -2.3942410886674864e-04  9.6855311507486623e-04 1.5114754757224317e-03 -2.4223464581693552e-04  9.9802056800436822e-04 1.6056333108809921e-03 -2.4445927645507442e-04  1.0255427924719504e-03 1.6907699624505558e-03 -2.4736465176723282e-04  1.0513176239708238e-03 1.7666984396453023e-03 -2.4957904084578551e-04  1.0762307585490583e-03 1.8393878847876867e-03 -2.5175605307256821e-04  1.1020792581450608e-03 1.9112577123874615e-03 -2.5288772493576558e-04  1.1265715539909959e-03 1.9798879076206861e-03 -2.5479386327496915e-04  1.1510755154426010e-03 2.0472491987478325e-03 -2.5578771832716462e-04  1.1746233485187489e-03 2.1110453204228625e-03 -2.5659789981882525e-04  1.1988956377497811e-03 2.1748585579914417e-03 -2.5740990514797009e-04  1.2226033111539863e-03 2.2391566633490224e-03 -2.5765317603818191e-04  1.2479162655235469e-03 2.3073809990971682e-03 -2.5799175123458176e-04  1.2732058396365648e-03 2.3774364113044932e-03 -2.5809098239572693e-04  1.2983151711830746e-03 2.4466637553328470e-03 -2.5840671887638825e-04  1.3251670255226063e-03 2.5204560034414935e-03 -2.5945249059914944e-04  1.3531267531880597e-03 2.5977977948669793e-03 -2.6052503875983047e-04  1.3823748013315942e-03 2.6771507122997180e-03 -2.6120388886628456e-04  0.0000000000000000e+00 0.0000000000000000e+00 0.0000000000000000e+00  0.0000000000000000e+00 0.0000000000000000e+00 0.0000000000000000e+00  0.0000000000000000e+00 0.0000000000000000e+00 0.0000000000000000e+00  0.0000000000000000e+00 0.0000000000000000e+00 0.0000000000000000e+00  0.0000000000000000e+00 0.0000000000000000e+00 0.0000000000000000e+00  0.0000000000000000e+00 0.0000000000000000e+00 0.0000000000000000e+00  0.0000000000000000e+00 0.0000000000000000e+00 0.0000000000000000e+00  0.0000000000000000e+00 0.0000000000000000e+00 0.0000000000000000e+00  0.0000000000000000e+00 0.0000000000000000e+00 0.0000000000000000e+00  0.0000000000000000e+00 0.0000000000000000e+00 0.0000000000000000e+00  0.0000000000000000e+00 0.0000000000000000e+00 0.0000000000000000e+00  0.0000000000000000e+00 0.0000000000000000e+00 0.0000000000000000e+00  0.0000000000000000e+00 0.0000000000000000e+00 0.0000000000000000e+00  0.0000000000000000e+00 0.000000000000