/*--------------------------------*- C++ -*----------------------------------*\
| =========                 |                                                 |
| \\      /  F ield         | OpenFOAM: The Open Source CFD Toolbox           |
|  \\    /   O peration     | Version:  2306                                  |
|   \\  /    A nd           | Website:  www.openfoam.com                      |
|    \\/     M anipulation  |                                                 |
\*---------------------------------------------------------------------------*/
FoamFile
{
    version     2.0;
    format      ascii;
    arch        "LSB;label=32;scalar=64";
    class       volScalarField;
    location    "0.0003";
    object      thicknessFraction;
}
// * * * * * * * * * * * * * * * * * * * * * * * * * * * * * * * * * * * * * //

dimensions      [0 0 0 0 0 0 0];

internalField   uniform 0;

boundaryField
{
    domainWalls
    {
        type            fixedValue;
        value           uniform 0;
    }
    inlet
    {
        type            fixedValue;
        value           uniform 0;
    }
    outlet
    {
        type            fixedValue;
        value           uniform 0;
    }
    NASAsc2-0410
    {
        type            fixedValue;
        value           nonuniform List<scalar> 
21859
(
0
0
0
0
0
0
0
0
0
0
0
0
0
0
0
0
0
0
0
0
0
0
0
0
0
0
0
0
0
0
0
0
0
0
0
0
0
0
0
0
0
0
0
0
0
0
0
0
0
0
0
0
0
0
0
0
0
0
1
0.99999979
1
1
1
1
1
1
1
1
1
1
1
0.99999989
1
1
1
1
1
1
1
1
1
1
1
1
1
1
1
1
1
1
1
1
1
1
1
1
1
1
1
1
1
1
0.99999996
0.99999951
1
1
1
1
1
1
1
0.99999986
1
1
1
1
1
0.99999989
0.99999987
1
1
0.99999975
1
1
1
1
1
1
1
1
1
1
1
1
1
1
1
1
1
1
1
1
1
1
1
1
1
1
1
1
1
1
1
1
1
1
1
1
1
1
1
1
1
1
1
1
1
1
1
1
1
1
1
1
1
1
1
1
1
1
1
1
1
1
1
1
1
1
1
1
1
1
1
1
1
1
1
1
1
1
1
1
1
1
1
1
1
0.99999822
1
1
0.99999988
1
1
1
1
1
1
1
1
1
0.99998593
1
1
1
1
0.71510918
0.71617049
1
1
1
1
1
1
1
1
1
1
1
1
1
1
1
1
1
1
1
1
0.71628129
0.71628125
1
1
1
1
0.71628129
0.71628129
1
1
1
1
1
1
1
1
1
1
1
1
1
1
1
1
1
1
1
1
0.7162813
0.7162813
1
1
1
1
0.7162813
0.71628128
1
1
1
1
1
1
1
1
1
1
1
1
1
1
1
1
1
1
1
1
0.71628145
0.71628133
1
1
1
1
0.71628149
0.7162816
1
1
1
1
1
1
1
1
1
1
1
1
1
1
1
1
1
1
1
1
0.71628189
0.71628183
1
1
1
1
0.7162819
0.7162819
1
1
1
1
1
1
1
1
1
1
1
1
1
1
1
1
1
1
1
1
0.71628184
0.71628184
1
1
1
1
0.71628185
0.7162803
1
0.97682227
0.99999998
0.99999157
0.97449071
0.99999666
0.97341394
0.97555928
0.92195236
0.99994148
0.97427396
0.91820687
0.91702238
0.92321641
0.97654745
0.91850726
0.99999997
0.97436955
0.88679138
0.33764456
0.37043472
0.86926518
0.88991761
0.37429803
0.88991659
0.37429813
0.88991636
0.374298
0.37429787
0.88991647
0.88991613
0.37429575
0.88991609
0.37429598
0.8899159
0.37429548
0.37429293
0.88991607
0.88981971
0.37382511
0.88974698
0.37402112
0.88964946
0.3737603
0.37356108
0.88972297
0.88902228
0.37168335
0.88895448
0.37187658
0.88894192
0.37165232
0.37166275
0.88894285
0.88836883
0.37049054
0.88850591
0.37010423
0.88870343
0.37062271
0.37101873
0.88855543
1
1
1
0.99999508
0.99999944
1
1
0.99999998
0.99999981
0.99999999
1
1
1
1
1
1
1
1
1
1
1
1
1
1
1
1
1
1
1
1
1
1
1
1
1
1
1
1
1
1
1
1
1
1
1
1
1
1
1
1
1
1
1
1
1
1
1
1
0.99595221
0.99996615
1
0.75326128
0.55879723
0.56360152
0.75023907
0.75694157
0.56969585
0.56946853
0.75708384
0.99999997
1
1
1
1
1
1
1
1
1
1
1
0.75718398
0.56985488
0.56985491
0.75718397
0.75717128
0.56979568
0.75714659
0.56983482
1
0.889918
0.37429927
0.37429946
0.88991784
0.88991779
0.37429913
0.37429881
0.88991778
1
0.75718388
0.56985482
0.56985474
0.75718393
1
0.75718372
0.56985456
0.56985453
0.75718374
1
1
1
1
1
1
1
1
1
1
1
0.75718379
0.5698545
0.5698546
0.75718374
0.75718382
0.56985461
0.75718378
0.56985467
1
0.88991628
0.37429698
0.37429726
0.88991625
0.88991621
0.37429687
0.37429631
0.88991624
1
0.75718358
0.56985435
0.56985417
0.75718367
1
0.7571832
0.56985319
0.56985332
0.75718315
1
1
1
1
1
1
1
1
1
1
1
0.7571829
0.5698526
0.5698527
0.75718284
0.75718306
0.56985307
0.7571831
0.56985297
1
0.88991546
0.3742844
0.37428455
0.88991552
0.88991623
0.37428435
0.37428418
0.88991557
1
0.75718269
0.56985248
0.56985234
0.75718277
1
0.75718239
0.5698518
0.56985184
0.75718236
1
1
1
1
1
1
1
1
1
1
1
0.75718231
0.56985171
0.56985171
0.75718232
0.75718233
0.56985177
0.75718234
0.56985176
1
0.88942463
0.3727538
0.3729558
0.88934947
0.88924911
0.37268645
0.37248432
0.88932439
1
0.75718239
0.56985174
0.56985179
0.75718234
1
0.75718248
0.56985187
0.56985189
0.75718247
1
1
1
1
1
1
1
1
1
1
1
0.75718242
0.56985176
0.56985178
0.75718241
0.75718245
0.56985186
0.75718246
0.56985184
1
0.88894621
0.37167426
0.3716768
0.88894564
0.88894832
0.37165946
0.37168366
0.88894277
1
0.75718191
0.56985168
0.56985103
0.75718235
1
0.75556936
0.56250329
0.56728869
0.75259892
0.99999998
0.99995888
0.99996712
0.071799294
0.98688499
0.8724472
0.57153141
0.5277878
0.99996384
0.73565213
0.55232567
0.74632554
0.53492602
0.40404245
0.51322109
0.88914426
0.37258735
0.37220093
0.88929146
0.88942154
0.37270159
0.37258742
0.88933992
0.99998758
0.99997293
0.99790475
0.99999996
0.99999489
0.71691639
0.99992663
0.99999867
1
0.99995814
0.97304739
0.99448235
0.99962113
1
1
1
1
1
0.71761858
1
1
1
1
1
1
0.71761857
1
1
1
1
1
1
0.71761818
1
1
1
1
1
1
0.71761816
0.71761816
1
1
1
1
1
1
0.71761816
1
0.71761816
1
1
1
1
1
0.71761816
0.71761816
1
1
1
1
1
1
1
0.71761847
1
1
1
1
1
1
1
1
1
1
1
0.71761856
1
1
1
1
1
1
0.71761783
1
0.99963585
0.9996144
0.88854319
0.37414631
0.37247531
0.88982327
0.99862858
0.99956472
1
1
1
1
1
1
1
1
1
1
1
1
0.99963652
0.99963651
0.88991812
0.37429837
0.37429818
0.88991884
0.86728487
0.86728479
0.99963651
0.99963651
0.99963651
0.99963651
0.88991635
0.37429762
0.37429782
0.88991632
0.99963651
0.99963651
1
1
1
1
1
0.71761821
1
1
1
1
1
1
0.71761829
1
0.99963651
0.99963651
0.88991614
0.37429607
0.374296
0.88991617
0.86728399
0.86728387
0.99963651
0.99963651
0.99963651
0.99963651
0.88991581
0.3742866
0.37429133
0.88991554
0.99963651
0.99963651
1
1
1
1
1
1
1
1
1
1
1
1
0.99963647
0.99963621
0.88984473
0.37426791
0.37408871
0.88990675
0.86722398
0.86717897
0.99963579
0.9996361
0.99963494
0.99963526
0.88962458
0.3732923
0.37349397
0.8895497
0.99963569
0.99963537
1
1
1
1
1
1
1
1
1
1
1
1
0.9996331
0.99963277
0.88904767
0.37214721
0.37194451
0.88912344
0.86674003
0.86669994
0.99963237
0.99963266
0.99963235
0.99963233
0.88894485
0.37168819
0.37167108
0.88894845
0.99963232
0.99963232
1
1
1
1
1
1
1
1
1
1
1
1
0.9996313
0.99962977
0.88835453
0.37113736
0.37001298
0.88870829
0.86634691
0.86642769
0.99963044
0.99962983
0.50111707
0.40001207
0.99963214
0.9996315
0.86654639
0.88875262
0.37154456
0.37115052
0.8888996
0.99963065
0.99963129
0.40880242
0.92219215
0.92231098
0.20653023
0.50569282
0.52054159
0.40189161
0.92156317
0.79569744
0.22048609
0.28188913
0.77707474
1
1
1
1
1
1
1
1
1
1
1
1
1
1
1
1
1
1
1
1
1
1
0.99999982
0.9999977
0.99999999
0.99999973
1
1
0.99999991
1
1
1
1
1
1
1
1
1
1
1
0.99999999
0.99999999
0.99999999
1
1
0.99999999
0.9999997
0.99999998
0.99999985
0.99999999
0.99999999
1
1
0.99999999
1
1
1
0.99999995
0.99999979
0.99999998
1
1
0.91936924
0.99987958
0.99273458
0.99797394
0.80538694
0.91349144
0.98170114
0.19713052
0.99999999
1
0.99999998
0.99999968
0.99999999
1
0.99999998
0.99999966
1
0.99999624
1
1
1
0.71761845
0.71761687
1
1
1
0.71760915
1
1
1
1
0.99999904
0.99998082
0.99959142
0.99999999
0.99999992
1
1
1
1
1
1
1
1
1
1
1
0.99999993
0.99999998
1
1
1
1
1
1
1
1
1
1
1
1
1
1
1
1
1
1
1
1
1
1
1
1
1
1
1
1
1
1
1
1
1
1
1
1
1
1
1
1
1
1
1
1
1
1
1
1
1
1
1
1
1
1
1
1
1
1
1
1
1
1
1
1
1
1
1
1
1
1
1
1
1
1
1
1
1
1
1
1
1
1
1
1
1
1
1
1
1
1
1
1
1
1
1
1
1
1
1
1
1
1
1
1
1
1
1
1
1
1
1
1
1
1
1
1
1
1
1
1
1
1
1
1
1
1
1
1
1
1
1
1
1
1
1
1
1
1
1
1
1
1
1
1
1
1
1
1
1
1
1
1
1
1
1
1
1
1
1
1
1
1
1
1
1
1
1
1
1
1
1
1
1
1
1
1
1
1
1
1
1
1
1
1
1
1
1
1
1
1
1
1
1
1
1
1
1
1
1
1
1
1
1
1
1
1
1
1
1
1
1
1
1
1
1
0.71761816
1
0.71761816
1
1
1
1
1
1
1
1
1
1
1
1
1
1
1
1
1
1
1
1
1
1
1
1
1
1
1
1
1
1
1
1
1
1
1
1
1
1
1
1
1
1
1
1
1
1
1
1
1
1
1
1
1
1
1
1
1
1
1
1
1
1
1
1
1
1
1
1
1
1
1
1
1
1
1
1
1
1
1
1
1
1
1
1
1
1
1
1
1
1
1
1
1
1
1
1
1
1
1
1
1
1
1
1
1
1
1
1
1
1
1
1
1
1
1
1
1
1
1
1
1
1
1
1
1
1
1
1
1
1
1
1
1
1
1
1
1
1
1
1
1
1
1
1
1
1
1
1
1
1
1
1
1
1
1
1
1
1
1
1
1
1
1
1
1
1
1
1
1
1
1
1
1
1
1
1
1
1
1
1
1
1
1
1
1
1
1
1
1
1
1
1
1
1
1
1
1
1
1
1
1
1
1
1
1
1
1
1
1
1
1
1
1
1
1
1
1
1
1
1
1
1
1
1
1
1
1
1
1
1
1
1
1
1
1
1
1
1
1
1
1
1
1
0.71761853
1
0.71761854
1
1
1
1
1
1
1
1
1
1
1
1
1
1
1
1
1
1
1
1
1
1
1
1
1
1
1
1
1
1
1
1
1
1
1
1
1
1
1
1
1
1
1
1
1
1
1
1
1
1
1
1
1
1
1
1
1
1
1
1
1
1
1
1
1
1
1
1
1
1
1
1
1
1
1
1
1
1
1
0.99856809
0.99999997
0.99999023
1
0.99999561
0.99998996
1
1
0.99999888
1
1
1
1
1
1
1
1
1
1
1
1
1
1
1
1
1
1
1
1
1
1
1
1
1
1
1
1
1
1
1
1
1
1
1
1
1
1
1
1
1
1
1
1
1
1
1
1
1
1
1
1
1
1
1
1
1
1
1
1
1
1
1
1
1
0.7156471
0.7151092
0.7156471
0.71617049
0.71599261
0.71599261
0.99999999
1
0.75449766
0.56701359
0.56544522
0.75543699
1
1
1
1
0.75665779
0.5682155
0.5690124
0.7561666
1
1
1
1
1
1
1
1
1
1
1
1
1
1
1
1
1
1
1
1
1
1
1
1
1
1
1
1
1
1
1
1
1
1
1
1
1
1
1
1
1
1
1
1
1
1
1
1
1
1
1
1
1
1
1
1
1
1
1
1
1
1
0.71628128
0.71628129
0.71628128
0.71628125
0.71628127
0.71628127
1
1
0.75718394
0.5698545
0.75718372
0.56985485
1
1
1
1
0.75718004
0.56985317
0.75718288
0.56984869
1
0.99470461
0.99994335
0.99999984
0.99987409
0.99993348
0.99999981
0.96164989
0.99999953
0.79397435
0.99999995
0.81182306
0.98555236
0.99999999
0.99826374
0.91809134
0.99978623
0.99999997
0.98560875
0.99777646
0.99999924
0.99971606
0.99999976
0.92650037
0.9996363
0.99963652
0.88991739
0.37424122
0.37429831
0.88988276
0.86728584
0.99963652
0.99963652
0.99999995
0.99994372
0.99999984
0.99999984
0.9999904
0.99994379
1
1
0.99999999
0.99999996
0.99999999
1
0.99999997
0.99999999
0.9996741
0.99999942
0.99999999
0.99996632
0.99999996
0.99999984
0.99994379
0.99999984
0.99994379
0.99999996
1
1
1
1
1
1
1
1
1
1
1
1
1
1
1
1
1
1
1
1
1
1
1
1
1
1
1
1
1
1
1
1
1
1
1
1
1
1
1
1
1
1
1
1
1
1
1
1
1
1
1
1
1
1
1
1
1
1
0.99963652
0.99963651
0.8899179
0.37429844
0.88991866
0.37429871
0.99963651
0.99963651
0.99999996
0.99994379
0.99999984
0.99994379
0.99999996
0.99999984
1
1
0.99999999
1
0.99999999
1
1
0.99999999
1
1
1
0.99999999
0.99999996
0.99994379
0.99999984
0.99994379
0.99999984
0.99999996
0.99999996
0.99994379
0.99999984
0.99999984
0.99994379
0.99999996
1
1
0.99999999
1
1
0.99999999
0.99999996
0.99999984
0.99994379
0.99999996
0.99999984
0.99994379
1
0.99999999
1
1
0.99999999
1
1
1
1
0.71628129
0.71628129
0.71628129
0.71628129
0.71628129
0.71628129
1
1
0.75718383
0.56985461
0.56985467
0.75718378
1
1
1
1
1
0.75718372
0.56985456
0.56985453
0.75718374
1
1
1
1
1
1
1
1
1
1
1
1
1
1
1
1
1
1
1
1
1
1
1
1
1
1
1
1
1
1
1
1
1
1
1
1
1
1
1
1
1
1
1
1
1
1
1
1
1
1
1
1
1
1
1
1
1
1
1
1
1
1
0.7162813
0.7162813
0.7162813
0.7162813
0.7162813
0.7162813
1
1
0.75718383
0.56985472
0.75718385
0.56985467
1
1
1
1
0.75718385
0.56985473
0.75718386
0.56985472
1
0.99999996
0.99994379
0.99999984
0.99994379
0.99999984
0.99999996
1
1
0.99999999
1
1
0.99999999
1
0.99999999
1
1
0.99999999
1
0.99999996
0.99994379
0.99999984
0.99994379
0.99999996
0.99999984
0.99963651
0.99963651
0.88991629
0.37429755
0.37429734
0.88991632
0.99963651
0.99963651
0.99999996
0.99994379
0.99999984
0.99999984
0.99999996
0.99994379
1
1
0.99999999
1
0.99999999
1
1
0.99999999
1
1
0.99999999
1
0.99999996
0.99999984
0.99994379
0.99999984
0.99994379
0.99999996
1
1
1
1
1
1
1
0.71761836
1
0.71761833
1
1
1
1
1
0.7176183
1
0.71761832
1
1
1
1
1
1
1
1
1
1
1
1
1
1
1
1
1
1
1
1
1
1
1
1
1
1
1
1
1
1
1
1
1
1
1
1
1
1
1
1
1
1
1
1
1
1
1
1
0.99963651
0.99963651
0.8899162
0.3742961
0.88991618
0.3742962
0.86728423
0.99963651
0.99963651
0.99999996
0.99994379
0.99999984
0.99994379
0.99999996
0.99999984
1
1
0.99999999
1
0.99999999
1
1
0.99999999
1
1
1
0.99999999
0.99999996
0.99994378
0.99999984
0.99994379
0.99999984
0.99999996
0.99999996
0.99994379
0.99999984
0.99999984
0.99994379
0.99999996
1
1
0.99999999
1
1
0.99999999
0.99999996
0.99999984
0.99994379
0.99999996
0.99999984
0.99994379
1
0.99999999
1
1
0.99999999
1
1
1
1
0.7162813
0.7162813
0.7162813
0.71628128
0.7162813
0.7162813
1
1
0.75718348
0.56985377
0.56985397
0.7571834
1
1
1
1
1
0.75718326
0.5698536
0.56985346
0.75718332
1
1
1
1
1
1
1
1
1
1
1
1
1
1
1
1
1
1
1
1
1
1
1
1
1
1
1
1
1
1
1
1
1
1
1
1
1
1
1
1
1
1
1
1
1
1
1
1
1
1
1
1
1
1
1
1
1
1
1
1
1
1
1
0.71628141
0.71628145
0.71628141
0.71628133
0.71628136
0.71628136
1
1
0.75718295
0.56985282
0.75718298
0.56985277
1
1
1
1
0.75718302
0.56985285
0.757183
0.5698529
1
0.99999996
0.99994378
0.99999984
0.99994378
0.99999984
0.99999996
1
1
0.99999999
1
1
0.99999999
1
0.99999999
1
1
0.99999999
1
0.99999996
0.99994378
0.99999984
0.99994378
0.99999996
0.99999984
0.99963651
0.99963651
0.88991545
0.37428569
0.37428465
0.88991549
0.99963651
0.99963651
0.99999996
0.99994378
0.99999984
0.99999984
0.99999996
0.99994378
1
1
0.99999999
1
0.99999999
1
1
0.99999999
1
1
0.99999999
1
0.99999996
0.99999984
0.99994379
0.99999984
0.99994378
0.99999996
1
1
1
1
1
1
1
0.71761816
1
1
1
1
1
1
0.71761816
1
1
1
1
1
1
1
1
1
1
1
1
1
1
1
1
1
1
1
1
1
1
1
1
1
1
1
1
1
1
1
1
1
1
1
1
1
1
1
1
1
1
1
1
1
1
1
1
1
0.9996365
0.99963652
0.88991666
0.37428023
0.8899142
0.37428415
0.99963651
0.99963651
0.99999996
0.99994378
0.99999984
0.99994374
0.99999996
0.99999984
1
1
0.99999999
1
0.99999999
1
1
0.99999999
1
1
1
0.99999999
0.99999996
0.99994367
0.99999984
0.99994372
0.99999984
0.99999996
0.99999996
0.99994378
0.99999984
0.99999984
0.99994379
0.99999996
1
1
0.99999999
1
1
0.99999999
0.99999996
0.99999984
0.99994379
0.99999996
0.99999984
0.99994379
1
0.99999999
1
1
0.99999999
1
1
1
1
0.71628153
0.71628149
0.71628153
0.7162816
0.71628157
0.71628157
1
1
0.75718263
0.5698521
0.56985221
0.75718257
1
1
1
1
1
0.75718244
0.569852
0.56985191
0.7571825
1
1
1
1
1
1
1
1
1
1
1
1
1
1
1
1
1
1
1
1
1
1
1
1
1
1
1
1
1
1
1
1
1
1
1
1
1
1
1
1
1
1
1
1
1
1
1
1
1
1
1
1
1
1
1
1
1
1
1
1
1
1
0.71628188
0.71628189
0.71628188
0.71628183
0.71628186
0.71628186
1
1
0.75718231
0.56985173
0.75718232
0.56985172
1
1
1
1
0.75718233
0.56985174
0.75718232
0.56985175
1
0.99999996
0.99994353
0.99999984
0.99994358
0.99999984
0.99999996
1
1
0.99999999
1
1
0.99999999
1
0.99999999
1
1
0.99999999
1
0.99999996
0.99994365
0.99999984
0.9999436
0.99999996
0.99999984
0.99963483
0.99963451
0.88944966
0.37322502
0.37302311
0.8895247
0.99963408
0.9996344
0.99999996
0.99994352
0.99999984
0.99999984
0.99999996
0.99994346
1
1
0.99999999
1
0.99999999
1
1
0.99999999
1
1
0.99999999
1
0.99999996
0.99999984
0.9999434
0.99999984
0.99994345
0.99999996
1
1
1
1
1
1
1
0.71761817
1
0.71761818
1
1
1
1
1
0.71761827
1
0.71761822
1
1
1
1
1
1
1
1
1
1
1
1
1
1
1
1
1
1
1
1
1
1
1
1
1
1
1
1
1
1
1
1
1
1
1
1
1
1
1
1
1
1
1
1
1
1
1
1
0.99963321
0.99963353
0.889224
0.37221466
0.88914861
0.37241693
0.86687673
0.99963397
0.99963364
0.99999996
0.99994324
0.99999984
0.99994319
0.99999996
0.99999984
1
1
0.99999999
1
0.99999999
1
1
0.99999999
1
1
1
0.99999999
0.99999996
0.99994312
0.99999984
0.99994317
0.99999984
0.99999996
0.99999996
0.99994326
0.99999984
0.99999984
0.99994331
0.99999996
1
1
0.99999999
1
1
0.99999999
0.99999996
0.99999984
0.99994338
0.99999996
0.99999984
0.99994333
1
0.99999999
1
1
0.99999999
1
1
1
1
0.7162819
0.7162819
0.7162819
0.7162819
0.7162819
0.7162819
1
1
0.75718244
0.56985189
0.56985185
0.75718247
1
1
1
1
1
0.75718249
0.56985191
0.5698519
0.75718249
1
1
1
1
1
1
1
1
1
1
1
1
1
1
1
1
1
1
1
1
1
1
1
1
1
1
1
1
1
1
1
1
1
1
1
1
1
1
1
1
1
1
1
1
1
1
1
1
1
1
1
1
1
1
1
1
1
1
1
1
1
1
1
0.71628183
0.71628184
0.71628183
0.71628184
0.71628183
0.71628183
1
1
0.75718243
0.5698518
0.75718243
0.56985179
1
1
1
1
0.75718244
0.56985181
0.75718244
0.56985183
1
0.99999996
0.99994312
0.99999984
0.99994312
0.99999984
0.99999996
1
1
0.99999999
1
1
0.99999999
1
0.99999999
1
1
0.99999999
1
0.99999996
0.99994311
0.99999984
0.99994311
0.99999996
0.99999984
0.99963233
0.99963232
0.88894305
0.37167115
0.3716665
0.88894469
0.99963234
0.99963234
0.99999996
0.99994312
0.99999984
0.99999984
0.99999996
0.99994312
1
1
0.99999999
1
0.99999999
1
1
0.99999999
1
1
0.99999999
1
0.99999996
0.99999984
0.99994312
0.99999984
0.99994312
0.99999996
1
1
1
1
1
1
1
0.71761856
1
1
1
1
1
1
0.71761856
1
1
1
1
1
1
1
1
1
1
1
1
1
1
1
1
1
1
1
1
1
1
1
1
1
1
1
1
1
1
1
1
1
1
1
1
1
1
1
1
1
1
1
1
1
1
1
1
1
0.9996319
0.99963235
0.88894818
0.37152871
0.88884526
0.37168814
0.99963233
0.99963235
0.99999996
0.99994295
0.99999984
0.9999427
0.99999996
0.99999984
1
1
0.99999999
1
0.99999999
1
1
0.99999999
1
1
1
0.99999999
0.99999996
0.99994281
0.99999984
0.99994271
0.99999984
0.99999996
0.99999996
0.99994305
0.99999984
0.99999984
0.99994312
0.99999996
1
1
0.99999999
1
1
0.99999999
0.99999996
0.99999984
0.99994312
0.99999996
0.99999984
0.99994312
1
0.99999999
1
1
0.99999999
1
1
1
1
0.71628182
0.71628185
0.71628182
0.7162803
0.71628158
0.71628158
1
1
0.7571787
0.56981723
0.56984623
0.75715972
1
1
1
1
1
0.75671118
0.56967535
0.56911142
0.75706853
0.99859377
0.97423471
0.9997255
0.99999998
0.99997952
0.99996756
0.99999997
0.99983204
0.99996633
0.99972401
0.9758694
0.99976775
0.99993806
0.99999996
0.99995913
0.97557647
0.99970645
0.99976839
0.99956818
0.97583551
0.99976418
0.72512208
0.33428698
0.098826651
0.28174438
0.84564869
0.21319596
0.38960265
0.99521762
0.9991919
0.95318903
0.99482832
0.76959402
0.82742054
0.99866216
0.89591719
0.93595894
0.91837609
0.19115936
0.25412842
0.92291969
0.4162611
0.53164702
0.62200407
0.55149027
0.35462847
0.92166472
0.25741846
0.20348581
0.92307632
0.21298388
0.41905129
0.99880167
0.91731604
0.15472147
0.91968658
0.19298479
0.20508126
0.40514763
0.64021318
0.61834965
0.055585675
0.25633469
0.92130426
0.91682773
0.20392405
0.17319646
0.29617115
0.48014614
0.58013496
0.47533626
0.97353124
0.99971177
0.99999998
0.99998048
0.86372389
0.97528919
0.97331581
0.7278764
0.61102216
0.63114574
0.17685581
0.29737453
0.25896148
0.57745836
0.41484041
0.20125322
0.50989606
0.99999996
0.99994309
0.99999984
0.99994298
0.99999984
0.99999996
1
1
0.99999999
1
1
0.99999999
1
0.99999999
1
1
0.99999999
1
0.99999996
0.99994285
0.99999984
0.99994295
0.99999996
0.99999984
0.99963235
0.99963298
0.88909525
0.37167562
0.37206957
0.88894848
0.86689801
0.9996338
0.99963319
0.99999996
0.99994312
0.99999984
0.99999984
0.99999996
0.99994322
1
1
0.99999999
1
0.99999999
1
1
0.99999999
1
1
0.99999999
1
0.99999996
0.99999984
0.99994333
0.99999984
0.99994325
0.99999995
0.9999632
0.99974407
0.99978146
0.97556609
0.97587517
0.9997612
0.99997607
0.71716169
0.99999999
0.71650417
0.99996972
0.99999998
0.99999998
0.99996601
0.99981559
0.97584895
0.20810643
0.92226486
0.27600459
0.92247284
0.095688713
0.16454714
0.20838842
0.92257533
0.92252358
0.20910063
0.20349898
0.92170324
0.62545613
0.55706951
0.20674352
0.92203143
0.99976094
0.97557585
0.99976108
0.97561728
0.99996593
0.99999998
0.99999998
0.99996586
0.99996595
0.99999998
0.99999998
0.99996599
0.99976086
0.97561943
0.97562673
0.99976045
0.99977395
0.97562267
0.99996794
0.99999998
0.99996879
0.99999998
0.99976797
0.97559126
0.038984967
0.92198445
0.99821048
0.88911043
0.33436868
0.8516039
0.37167618
0.86692136
0.99963362
0.99937871
0.37818344
0.80581341
0.90908714
0.8981244
0.24260268
0.035869862
0.26921757
0.91473025
0.92235477
0.20916607
0.91258011
0.38865498
0.99956042
0.92668003
0.97051759
0.99968884
0.99865706
0.96492849
0.99995496
0.99999998
0.99999996
0.99999997
0.99996571
0.99996121
0.99993268
0.99999981
0.99994305
0.9999999
0.99995485
0.99971709
0.99968932
0.9727933
0.97552264
0.9997593
0.99972777
0.97128394
0.99997421
0.99997555
1
1
1
1
1
1
1
1
1
1
1
1
1
1
1
1
1
1
1
1
0.98622008
0.98412724
1
1
1
1
1
1
1
1
1
1
1
1
1
1
1
1
1
1
1
1
0.95526657
0.94769661
1
1
0.99999987
1
1
1
1
1
1
1
1
1
1
1
1
1
1
1
1
1
1
1
1
1
1
1
1
1
1
1
1
1
1
1
1
0.78382241
0.91719503
1
1
1
1
0.7137174
0.74097182
0.88320717
0.99744286
0.99693868
0.89339999
0.99999984
1
0.99999991
1
0.99999825
0.99949382
0.99936352
0.99999887
1
1
1
1
1
1
1
1
1
1
1
1
1
1
1
1
1
1
0.99999998
0.99999999
1
1
1
1
1
1
1
1
1
1
1
1
1
1
1
1
1
1
1
1
1
1
1
1
1
1
1
1
1
1
1
1
1
1
1
1
1
1
1
1
1
1
1
1
1
1
1
1
1
1
1
1
1
1
1
1
1
0.18306162
0.19459962
0.99304277
0.97366482
0.99999955
0.67502301
0.88337875
0.66942092
0.36755107
0.35674517
0.37892733
0.36613669
0.87778514
0.88991715
0.67994279
0.67994219
0.38922913
0.37429806
0.88991681
0.3892295
0.37429809
0.67994102
0.88991638
0.67994108
0.38922863
0.37429796
0.38922854
0.37429792
0.88991641
0.67994116
0.88991612
0.67993973
0.67993969
0.38922622
0.37429588
0.88991611
0.38922631
0.37429594
0.67993886
0.88991597
0.67993915
0.38922567
0.37429498
0.38922525
0.37429415
0.88991603
0.8897951
0.67970004
0.67964151
0.38866517
0.3738897
0.88977094
0.38875083
0.37395487
0.67929645
0.88967421
0.67935551
0.38840938
0.37369453
0.38831953
0.37362801
0.88969874
0.67941393
0.8889972
0.67780029
0.67773979
0.38574341
0.37174216
0.88897371
0.38583581
0.37180859
0.67760773
0.8889395
0.67760136
0.38561329
0.37164944
0.38562057
0.37165495
0.88893892
0.8884087
0.67623314
0.67633522
0.38386739
0.37035843
0.8884565
0.3836877
0.37022758
0.67703897
0.88865417
0.6769217
0.38440885
0.37075481
0.38458867
0.37088682
0.88860484
0.67680428
0.99998666
0.99999374
0.99999873
0.99999876
0.99998877
0.99999707
0.99999904
0.99999858
0.99999937
0.99999903
1
1
1
1
1
1
1
1
1
1
1
1
1
1
1
1
1
1
1
1
1
1
1
1
1
1
1
1
1
1
1
1
1
1
1
1
1
1
1
1
1
1
1
1
1
1
1
1
1
1
1
1
1
1
1
1
1
1
1
1
1
1
1
1
1
1
1
1
1
1
1
1
1
1
1
1
1
1
1
1
1
1
1
1
1
1
1
1
1
1
1
1
1
1
1
1
1
1
1
1
0.99131987
0.99898329
0.99986726
0.99985309
0.98570388
0.99087294
0.99769397
0.99979308
0.99991851
0.99987109
1
1
1
1
1
1
1
1
1
1
1
1
1
1
1
1
1
1
1
1
0.67994394
0.88991802
0.6799441
0.38923202
0.37429943
0.38923217
0.37429957
0.88991793
0.67994344
0.88991775
0.67994346
0.38923137
0.37429902
0.38923119
0.37429891
0.88991775
1
1
1
1
1
1
1
1
1
1
1
1
1
1
1
1
1
1
1
1
0.67994037
0.88991627
0.67994033
0.38922744
0.37429709
0.38922752
0.37429718
0.88991626
0.67994029
0.67994009
0.88991622
0.67994013
0.38922721
0.37429672
0.38922713
0.37429651
0.88991623
0.67994017
1
1
1
1
1
1
1
1
1
1
1
1
1
1
1
1
1
1
1
1
0.67993685
0.88991547
0.67993679
0.38922017
0.37428444
0.38922029
0.37428449
0.88991549
0.67993733
0.8899159
0.67993699
0.38921997
0.3742843
0.38922003
0.37428422
0.88991569
1
1
1
1
1
1
1
1
1
1
1
1
1
1
1
1
1
1
1
1
0.67875994
0.88939959
0.67870019
0.38722032
0.37282114
0.38731214
0.37288847
0.88937453
0.67864043
0.67834133
0.88927422
0.67840119
0.38694473
0.37261908
0.38685281
0.37255171
0.88929931
0.67846103
1
1
1
1
1
1
1
1
1
1
1
1
1
1
1
1
1
1
1
1
0.67761886
0.88894861
0.67762561
0.38566638
0.37168948
0.38566242
0.37168593
0.88894864
0.67762493
0.88894563
0.67761701
0.38563199
0.37166376
0.38564595
0.37167357
0.88894306
0.97212991
0.96538342
0.9529662
0.97022647
0.91971509
0.42957457
0.25708807
0.9258264
0.70891976
0.39249228
0.67808829
0.88919334
0.67820524
0.38673351
0.37246171
0.38655414
0.37233197
0.88924245
0.67884832
0.88942739
0.67876989
0.38725597
0.37278655
0.38740979
0.3727959
0.88938687
1
0.99999995
0.99999998
1
1
1
0.98622188
0.99633098
0.99913735
0.99963453
0.99748922
0.99913519
0.99631736
0.99741877
0.99963011
0.9991215
0.98626542
0.85903649
0.6777955
0.88933918
0.67903748
0.38889315
0.37392884
0.38842517
0.37345848
0.88967982
0.67956711
0.9854191
0.99576023
0.99915631
0.99502609
0.99632222
0.99609525
0.99729293
0.999102
0.99943541
0.99905546
0.98403787
0.98630101
0.99634221
0.99749333
0.99963652
0.98630101
0.99634221
0.99963652
0.99913871
0.99913871
0.67994346
0.88991856
0.67994405
0.38923142
0.3742983
0.38923109
0.37429824
0.88991881
0.67994441
0.86728484
0.86728481
0.986301
0.99634221
0.99749327
0.99963651
0.99749327
0.99913871
0.986301
0.99634221
0.99963651
0.99913871
1
1
1
1
1
1
0.98630095
0.99634219
0.99963651
0.99749326
0.99634219
0.99963651
0.9991387
0.9991387
0.98630095
0.86728471
0.67994096
0.88991634
0.67994089
0.38922815
0.37429769
0.38922825
0.37429776
0.88991633
0.6799408
0.98630097
0.9963422
0.99913871
0.99749326
0.99963651
0.99749326
0.9991387
0.98630097
0.9963422
0.99749326
0.99963651
0.9991387
0.98630091
0.99634218
0.99749326
0.99963651
0.98630091
0.99634218
0.99963651
0.67993977
0.88991615
0.67993981
0.38922661
0.37429605
0.38922653
0.37429603
0.88991616
0.67993989
0.9863009
0.99634218
0.9991387
0.99749326
0.99963651
0.9863009
0.99634218
0.99749326
0.9991387
0.99963651
1
1
1
1
1
1
0.98630088
0.99634219
0.99963651
0.99749326
0.99913871
0.99634218
0.99749326
0.99963651
0.98630088
0.86728368
0.67993851
0.88991571
0.67993814
0.38922231
0.3742879
0.38922308
0.37428954
0.88991562
0.67993778
0.98630089
0.99634218
0.9991387
0.99749326
0.99963651
0.99749326
0.98630089
0.99634218
0.99749326
0.99963651
0.9862984
0.99634186
0.99749305
0.99963641
0.98629947
0.9963416
0.99963631
0.99913852
0.99913859
0.67976024
0.88986943
0.67982098
0.38912622
0.37422491
0.38902892
0.3741572
0.88989145
0.67987708
0.86720897
0.86719397
0.98629453
0.99634035
0.99748856
0.99963589
0.99748924
0.99913832
0.9862932
0.99634067
0.99963599
0.99913839
1
1
1
1
1
1
0.98628391
0.9963378
0.99963505
0.99748297
0.99633812
0.99963515
0.99913791
0.99913784
0.98628259
0.86713388
0.67923706
0.88959965
0.67917753
0.38795413
0.37335955
0.38804573
0.37342678
0.88957468
0.67911794
0.98628788
0.99633939
0.99748789
0.99963558
0.9974872
0.99913811
0.9862892
0.99633907
0.9974858
0.99963548
0.99913805
0.98625609
0.99633178
0.99913657
0.99747083
0.99963299
0.98625742
0.99633146
0.99963288
0.67786105
0.88907301
0.67792149
0.38620861
0.37207973
0.38611625
0.3720122
0.88909826
0.67804172
0.98625213
0.99633023
0.99913612
0.99746604
0.99963245
0.98625094
0.99633052
0.99746795
0.99963255
1
1
1
1
1
1
0.98624949
0.99632991
0.9991361
0.99963235
0.99746585
0.9991361
0.99632989
0.99746576
0.99963234
0.99913609
0.98624957
0.8666905
0.67761497
0.88894758
0.67762186
0.3856628
0.37168642
0.38565378
0.37167937
0.88894922
0.67762662
0.98624912
0.9963298
0.99746571
0.9996323
0.99746559
0.98624912
0.9963298
0.99746567
0.99913609
0.99963231
0.98622112
0.99632462
0.99745888
0.99963054
0.98622758
0.99632308
0.99962997
0.99913452
0.99913465
0.67618064
0.88839874
0.67626202
0.38403756
0.37046217
0.3834586
0.37003839
0.8885303
0.67660133
0.86637006
0.86639824
0.98622102
0.99632365
0.99745324
0.99963022
0.99745182
0.99913477
0.98622347
0.99632306
0.99963001
0.99913465
1
1
1
0.53756533
0.25546452
0.98624168
0.99632864
0.99963193
0.99746447
0.99632802
0.99963171
0.98624428
0.86651673
0.67715606
0.88880171
0.6772729
0.385305
0.37141349
0.38512663
0.37128213
0.88885069
0.98623386
0.99632552
0.99913504
0.99745465
0.99963086
0.98623126
0.99632614
0.99745888
0.99963108
0.2969722
0.58000393
0.80607167
0.55730405
0.57467707
0.58116959
0.25496222
0.40626873
0.12367114
0.36694383
0.29442353
0.28559005
0.1946034
0.19991356
0.071185445
0.61847824
0.48144344
0.9999996
0.99999961
1
1
1
0.99999999
0.99999969
0.99999995
0.99999969
0.99999909
0.99999862
0.99999932
0.9999999
1
1
0.99999998
0.99999997
1
1
1
1
1
1
1
1
1
1
1
1
1
1
1
1
1
1
1
1
0.99999993
0.99999996
1
1
1
1
1
1
1
1
1
1
1
1
1
1
1
1
1
1
1
1
1
1
1
1
1
1
1
1
1
1
1
1
1
1
1
1
1
1
1
1
1
1
1
1
1
1
1
1
1
1
1
1
1
1
1
1
1
1
1
1
1
1
1
1
1
1
1
1
1
1
1
1
1
1
1
1
1
1
1
1
1
1
1
1
1
1
1
1
1
1
1
1
1
1
1
1
1
1
1
1
1
1
1
1
1
1
1
1
1
1
1
1
1
1
1
1
1
1
1
1
1
1
1
1
1
1
1
1
1
1
1
1
1
1
1
1
1
1
1
1
1
1
1
1
1
1
1
1
1
1
1
1
1
1
1
1
1
1
1
1
1
1
1
1
1
1
1
1
1
1
1
1
1
1
1
1
1
1
1
1
1
0.99960634
0.99965702
0.99993469
0.999998
0.99998092
0.99997917
0.99999999
0.99999999
0.99999999
0.99999997
0.99998861
0.99999956
0.99998209
1
0.99999999
0.99999981
0.9999999
1
1
1
1
1
1
1
1
1
1
1
1
0.99999974
0.99999933
1
1
1
1
1
1
1
1
1
1
1
1
1
1
1
1
1
1
1
1
1
1
1
1
1
1
1
1
1
1
1
1
1
1
1
1
1
1
1
1
1
1
1
1
1
0.99844721
0.99844871
0.99994082
0.99999072
0.99962802
0.9999274
0.99963871
0.9999838
0.91702551
0.91803502
0.20798102
0.22518297
0.99999975
0.99999978
0.8547636
0.56268002
0.99999989
0.86030042
0.59433924
0.96836262
0.99560082
0.99999999
0.99242301
0.99895454
0.94404942
0.97269346
0.99891833
0.99947039
0.99999998
0.99999999
0.99562231
0.96891656
0.99873551
0.99195766
0.99889511
0.99936196
0.94670516
0.97749981
0.98630083
0.99634182
0.9974919
0.99963646
0.99749291
0.9862996
0.99634218
0.99749331
0.99963651
0.99913872
0.67994264
0.88991475
0.67993782
0.38921154
0.37427963
0.38922561
0.37429376
0.88990627
0.67988517
0.86728573
0.98630111
0.99634223
0.99963652
0.9974933
0.99634224
0.99963652
0.99913871
0.98630107
0.99999987
0.9999994
0.99999314
0.99994378
0.9999989
0.99999742
0.99999344
0.99994378
0.99999999
1
1
1
0.99999999
0.99999998
1
1
0.99999999
1
1
0.9999999
0.9999996
1
0.99999999
0.99995037
0.99981398
0.99999973
0.99999395
0.99999999
0.99999582
0.99991076
0.9999994
0.99999996
0.99994379
0.99999344
0.99999344
0.99994379
0.99999996
0.9999994
1
1
0.98630102
0.99634221
0.99749332
0.99963652
0.99749332
0.99913871
0.98630102
0.99634221
0.9974933
0.99963652
0.88991811
0.6799435
0.67994369
0.3892312
0.37429852
0.88991838
0.67994429
0.67994398
0.38923104
0.37429861
0.98630103
0.99634221
0.99913871
0.9974933
0.99963651
0.98630103
0.99634221
0.99913871
0.99963651
0.9999994
0.99999996
0.99994379
0.99999344
0.99999344
0.99994379
0.99999996
0.9999994
1
1
1
1
1
0.99999999
1
1
0.99999999
1
1
1
1
1
0.99999999
1
1
1
1
1
1
0.99999999
0.9999994
0.99999996
0.99994379
0.99999344
0.99999344
0.99994379
0.99999996
0.9999994
0.9999994
0.99999996
0.99994379
0.99999344
0.99999344
0.99994379
0.99999996
0.9999994
1
1
1
1
1
0.99999999
1
1
1
1
0.99999999
1
0.99999996
0.9999994
0.99999344
0.99994379
0.99999996
0.9999994
0.99999344
0.99994379
1
1
0.99999999
1
1
1
1
0.99999999
1
1
1
1
1
1
1
1
1
1
1
1
1
1
1
1
1
1
1
1
1
1
1
1
1
1
1
1
1
1
1
1
1
1
1
1
1
1
1
1
1
1
1
1
1
1
1
1
1
1
1
1
1
1
1
1
1
1
1
1
0.9999994
0.99999996
0.99994379
0.99999344
0.99999344
0.99994379
0.99999996
0.9999994
1
1
1
1
0.99999999
1
1
1
1
0.99999999
1
1
1
0.99999999
1
1
1
1
0.99999999
1
1
0.9999994
0.99999996
0.99994379
0.99999344
0.99999344
0.99994379
0.99999996
0.9999994
0.98630094
0.99634219
0.99749326
0.99963651
0.99749326
0.9991387
0.98630094
0.99634219
0.99749326
0.99963651
0.67994041
0.8899163
0.67994046
0.38922784
0.37429748
0.38922775
0.37429741
0.88991631
0.67994051
0.98630093
0.99634219
0.9991387
0.99963651
0.99749326
0.99634219
0.99963651
0.98630093
0.99999996
0.9999994
0.99999344
0.99994379
0.99999996
0.9999994
0.99999344