/*--------------------------------*- C++ -*----------------------------------*\
| =========                 |                                                 |
| \\      /  F ield         | OpenFOAM: The Open Source CFD Toolbox           |
|  \\    /   O peration     | Version:  2306                                  |
|   \\  /    A nd           | Website:  www.openfoam.com                      |
|    \\/     M anipulation  |                                                 |
\*---------------------------------------------------------------------------*/
FoamFile
{
    version     2.0;
    format      ascii;
    arch        "LSB;label=32;scalar=64";
    class       polyBoundaryMesh;
    location    "0.0003/polyMesh";
    object      boundary;
}
// * * * * * * * * * * * * * * * * * * * * * * * * * * * * * * * * * * * * * //

4
(
    domainWalls
    {
        type            patch;
        nFaces          5019;
        startFace       737091;
    }
    inlet
    {
        type            patch;
        nFaces          256;
        startFace       742110;
    }
    outlet
    {
        type            patch;
        nFaces          256;
        startFace       742366;
    }
    NASAsc2-0410
    {
        type            wall;
        inGroups        2(NASAsc2-0410Group wall);
        nFaces          21859;
        startFace       742622;
    }
)

// ************************************************************************* //
