<?xml version="1.0"?>
<VTKFile type="UnstructuredGrid"  version="0.1"  >
<UnstructuredGrid>
<Piece  NumberOfPoints="6792" NumberOfCells="27356">
<Points>
<DataArray  type="Float64"  NumberOfComponents="3"  format="ascii">1 0.04955 0  3.483770450905253e-06 0.04864772283650545 0  3.483770450905253e-06 0.04864772283650545 2.95  1 0.04955 2.95  0.9614914509556102 0.05602110176506378 0  0.9228377363943755 0.06157507032849151 0  0.8841171337688254 0.06664677567353106 0  0.8453497929027326 0.07134844014213877 0  0.8065426484628649 0.07571068168960433 0  0.767701037137778 0.07975227804287441 0  0.7288226488951823 0.08342258494612227 0  0.6899106911935076 0.08671747418051448 0  0.6509691924565468 0.08964194650917487 0  0.6119942987727893 0.09208716448646743 0  0.5729940670865327 0.0940815605996938 0  0.5339714366292608 0.09557108769574235 0  0.4949363525732989 0.09668736483495347 0  0.4558922053771201 0.09742219444114282 0  0.4168427532038373 0.09777652329987013 0  0.3777913478856202 0.09785960942865296 0  0.3387409476592283 0.09755952365518905 0  0.2996943532985683 0.09696002677821007 0  0.2606553968529943 0.09598397055157717 0  0.2216347829232145 0.0944397817471346 0  0.1826412248886092 0.09231999179026615 0  0.1436888477274173 0.08954718608240762 0  0.1048105786555559 0.08588484187305967 0  0.06610929802010608 0.08070523969887558 0  0.02799562603487961 0.07231569113842684 0  3.483770450905253e-06 0.04864772283650545 0.03986486486486478  3.483770450905253e-06 0.04864772283650545 0.07972972972972957  3.483770450905253e-06 0.04864772283650545 0.1195945945945947  3.483770450905253e-06 0.04864772283650545 0.1594594594594595  3.483770450905253e-06 0.04864772283650545 0.1993243243243243  3.483770450905253e-06 0.04864772283650545 0.2391891891891894  3.483770450905253e-06 0.04864772283650545 0.2790540540540542  3.483770450905253e-06 0.04864772283650545 0.318918918918919  3.483770450905253e-06 0.04864772283650545 0.3587837837837837  3.483770450905254e-06 0.04864772283650545 0.3986486486486485  3.483770450905253e-06 0.04864772283650545 0.4385135135135136  3.483770450905253e-06 0.04864772283650545 0.4783783783783784  3.483770450905253e-06 0.04864772283650545 0.5182432432432432  3.483770450905254e-06 0.04864772283650545 0.558108108108108  3.483770450905253e-06 0.04864772283650545 0.5979729729729731  3.483770450905253e-06 0.04864772283650545 0.6378378378378379  3.483770450905253e-06 0.04864772283650545 0.6777027027027027  3.483770450905254e-06 0.04864772283650545 0.7175675675675675  3.483770450905253e-06 0.04864772283650545 0.7574324324324325  3.483770450905253e-06 0.04864772283650545 0.7972972972972973  3.483770450905253e-06 0.04864772283650545 0.8371621621621621  3.483770450905254e-06 0.04864772283650545 0.8770270270270268  3.483770450905253e-06 0.04864772283650545 0.9168918918918917  3.483770450905253e-06 0.04864772283650545 0.9567567567567568  3.483770450905253e-06 0.04864772283650545 0.9966216216216216  3.483770450905254e-06 0.04864772283650545 1.036486486486486  3.483770450905253e-06 0.04864772283650545 1.076351351351351  3.483770450905253e-06 0.04864772283650545 1.116216216216216  3.483770450905253e-06 0.04864772283650545 1.156081081081081  3.483770450905253e-06 0.04864772283650545 1.195945945945946  3.483770450905253e-06 0.04864772283650545 1.235810810810811  3.483770450905253e-06 0.04864772283650545 1.275675675675676  3.483770450905253e-06 0.04864772283650545 1.315540540540541  3.483770450905253e-06 0.04864772283650545 1.355405405405405  3.483770450905253e-06 0.04864772283650545 1.39527027027027  3.483770450905253e-06 0.04864772283650545 1.435135135135135  3.483770450905253e-06 0.04864772283650545 1.475  3.483770450905253e-06 0.04864772283650545 1.514864864864865  3.483770450905253e-06 0.04864772283650545 1.55472972972973  3.483770450905253e-06 0.04864772283650545 1.594594594594595  3.483770450905253e-06 0.04864772283650545 1.634459459459459  3.483770450905253e-06 0.04864772283650545 1.674324324324324  3.483770450905253e-06 0.04864772283650545 1.714189189189189  3.483770450905253e-06 0.04864772283650545 1.754054054054054  3.483770450905253e-06 0.04864772283650545 1.793918918918919  3.483770450905253e-06 0.04864772283650545 1.833783783783784  3.483770450905253e-06 0.04864772283650545 1.873648648648649  3.483770450905254e-06 0.04864772283650545 1.913513513513514  3.483770450905253e-06 0.04864772283650545 1.953378378378378  3.483770450905253e-06 0.04864772283650545 1.993243243243243  3.483770450905253e-06 0.04864772283650545 2.033108108108108  3.483770450905254e-06 0.04864772283650545 2.072972972972973  3.483770450905253e-06 0.04864772283650545 2.112837837837838  3.483770450905253e-06 0.04864772283650545 2.152702702702702  3.483770450905253e-06 0.04864772283650545 2.192567567567567  3.483770450905253e-06 0.04864772283650545 2.232432432432432  3.483770450905253e-06 0.04864772283650545 2.272297297297297  3.483770450905253e-06 0.04864772283650545 2.312162162162162  3.483770450905253e-06 0.04864772283650545 2.352027027027027  3.483770450905254e-06 0.04864772283650545 2.391891891891892  3.483770450905253e-06 0.04864772283650545 2.431756756756757  3.483770450905253e-06 0.04864772283650545 2.471621621621622  3.483770450905253e-06 0.04864772283650545 2.511486486486486  3.483770450905253e-06 0.04864772283650545 2.551351351351351  3.483770450905253e-06 0.04864772283650545 2.591216216216216  3.483770450905253e-06 0.04864772283650545 2.631081081081081  3.483770450905253e-06 0.04864772283650545 2.670945945945946  3.483770450905253e-06 0.04864772283650545 2.710810810810811  3.483770450905253e-06 0.04864772283650545 2.750675675675675  3.483770450905253e-06 0.04864772283650545 2.79054054054054  3.483770450905253e-06 0.04864772283650545 2.830405405405405  3.483770450905253e-06 0.04864772283650545 2.87027027027027  3.483770450905253e-06 0.04864772283650545 2.910135135135135  0.9614914509556102 0.05602110176506378 2.95  0.9228377363943755 0.06157507032849151 2.95  0.8841171337688254 0.06664677567353106 2.95  0.8453497929027326 0.07134844014213877 2.95  0.8065426484628649 0.07571068168960433 2.95  0.767701037137778 0.07975227804287441 2.95  0.7288226488951823 0.08342258494612227 2.95  0.6899106911935076 0.08671747418051448 2.95  0.6509691924565468 0.08964194650917487 2.95  0.6119942987727893 0.09208716448646743 2.95  0.5729940670865327 0.0940815605996938 2.95  0.5339714366292608 0.09557108769574235 2.95  0.4949363525732989 0.09668736483495347 2.95  0.4558922053771201 0.09742219444114282 2.95  0.4168427532038373 0.09777652329987013 2.95  0.3777913478856202 0.09785960942865296 2.95  0.3387409476592283 0.09755952365518905 2.95  0.2996943532985683 0.09696002677821007 2.95  0.2606553968529943 0.09598397055157717 2.95  0.2216347829232145 0.0944397817471346 2.95  0.1826412248886092 0.09231999179026615 2.95  0.1436888477274173 0.08954718608240762 2.95  0.1048105786555559 0.08588484187305967 2.95  0.06610929802010608 0.08070523969887558 2.95  0.02799562603487961 0.07231569113842684 2.95  1 0.04955 0.03986486486486478  1 0.04955 0.07972972972972957  1 0.04955 0.1195945945945947  1 0.04955 0.1594594594594595  1 0.04955 0.1993243243243243  1 0.04955 0.2391891891891894  1 0.04955 0.2790540540540542  1 0.04955 0.318918918918919  1 0.04955 0.3587837837837837  1 0.04955 0.3986486486486485  1 0.04955 0.4385135135135136  1 0.04955 0.4783783783783784  1 0.04955 0.5182432432432432  1 0.04955 0.558108108108108  1 0.04955 0.5979729729729731  1 0.04955 0.6378378378378379  1 0.04955 0.6777027027027027  1 0.04955 0.7175675675675675  1 0.04955 0.7574324324324325  1 0.04955 0.7972972972972973  1 0.04955 0.8371621621621621  1 0.04955 0.8770270270270268  1 0.04955 0.9168918918918917  1 0.04955 0.9567567567567568  1 0.04955 0.9966216216216216  1 0.04955 1.036486486486486  1 0.04955 1.076351351351351  1 0.04955 1.116216216216216  1 0.04955 1.156081081081081  1 0.04955 1.195945945945946  1 0.04955 1.235810810810811  1 0.04955 1.275675675675676  1 0.04955 1.315540540540541  1 0.04955 1.355405405405405  1 0.04955 1.39527027027027  1 0.04955 1.435135135135135  1 0.04955 1.475  1 0.04955 1.514864864864865  1 0.04955 1.55472972972973  1 0.04955 1.594594594594595  1 0.04955 1.634459459459459  1 0.04955 1.674324324324324  1 0.04955 1.714189189189189  1 0.04955 1.754054054054054  1 0.04955 1.793918918918919  1 0.04955 1.833783783783784  1 0.04955 1.873648648648649  1 0.04955 1.913513513513514  1 0.04955 1.953378378378378  1 0.04955 1.993243243243243  1 0.04955 2.033108108108108  1 0.04955 2.072972972972973  1 0.04955 2.112837837837838  1 0.04955 2.152702702702702  1 0.04955 2.192567567567567  1 0.04955 2.232432432432432  1 0.04955 2.272297297297297  1 0.04955 2.312162162162162  1 0.04955 2.352027027027027  1 0.04955 2.391891891891892  1 0.04955 2.431756756756757  1 0.04955 2.471621621621622  1 0.04955 2.511486486486486  1 0.04955 2.551351351351351  1 0.04955 2.591216216216216  1 0.04955 2.631081081081081  1 0.04955 2.670945945945946  1 0.04955 2.710810810810811  1 0.04955 2.750675675675675  1 0.04955 2.79054054054054  1 0.04955 2.830405405405405  1 0.04955 2.87027027027027  1 0.04955 2.910135135135135  0.02944791791741266 0.02568335747494204 2.95  0.06739959802175059 0.01668366561318974 2.95  0.1060915934671822 0.0114166171279548 2.95  0.1449547383666263 0.007604877665367951 2.95  0.1839023190174623 0.004771824790359529 2.95  0.2228974856125079 0.002695594450099453 2.95  0.2619225864200277 0.00128693556074632 2.95  0.3009638072495824 0.0004163253864253591 2.95  0.3400130267334831 3.288562887322072e-05 2.95  0.3790640726433268 2.47154061469787e-05 2.95  0.4181111649963796 0.0005829877759681232 2.95  0.4571481818501018 0.001627730071789617 2.95  0.4961626158055384 0.003319136116869195 2.95  0.5351359076897134 0.005766114894123327 2.95  0.5740214695458749 0.009334357643371156 2.95  0.6127729623907119 0.01415938433770651 2.95  0.6514271884526235 0.0197089010257088 2.95  0.6899862259323538 0.02588876096486022 2.95  0.7285325503256527 0.03214961618260601 2.95  0.7670790796999662 0.038409
[...]
<CellData  Scalars="VonMises_Stress"> 
<DataArray  type="Float64"  Name="VonMises_Stress"  format="ascii">5.7831740972639981e+05   1.6970182053393053e+05   1.8102530494290759e+05   1.2514411636545775e+06   7.1056595975691651e+05   1.6959722240175435e+06   4.5084541329529235e+05   3.7107612054313955e+04   6.2713153613633818e+04   1.7467874508881083e+05   1.4414983307365540e+06   1.6275570228347196e+06   2.6250246348308725e+06   1.7133312674529215e+06   2.1695606964779273e+06   1.0366590622219745e+05   1.7909495372948016e+05   1.9398995569836226e+05   2.4767941685244134e+06   2.6088865040090407e+05   7.3314717142561241e+05   1.1227996941006533e+06   6.5568233369232155e+05   1.5666187209359547e+06   3.9371683909268933e+05   1.0713589516156157e+06   7.0023274408976652e+05   3.7702300776120392e+04   1.2954908255977205e+05   1.0478856090097999e+06   2.2261587943372590e+05   8.7435392437313171e+05   1.5586472837865163e+05   1.8579724589481975e+06   9.1844980709837191e+05   9.3045642069653748e+05   3.0081485488799153e+04   5.8270332902705632e+04   1.3169091127436212e+05   6.6618511213356222e+04   1.1591681160282448e+05   5.1534940425204788e+05   5.2094679858139111e+05   9.4722862545546304e+04   2.7945678681003759e+04   1.3659305443141662e+04   2.2825563486984654e+04   1.4199951860957636e+05   1.0794929079389845e+06   8.0175907501680148e+05   1.0822722642923186e+06   7.2947949883823720e+04   5.4786292758413742e+05   1.3313576225813362e+05   1.7865991016488007e+05   6.4716972428933403e+05   6.1742518112118523e+04   2.1759859136083326e+06   2.2773813727985517e+05   6.6058546547866205e+05   1.7130371252413424e+04   2.2913372096825644e+05   2.0285600452371628e+06   5.6836688538607745e+05   7.8872409785243694e+05   1.8598509073030632e+06   8.2076349237233590e+04   1.3901517246043886e+04   8.0616005468378047e+04   1.2581135375125809e+06   2.5066449652406191e+06   1.2673452656937487e+05   8.8015889012074494e+05   7.1273681317034265e+04   5.4004708980378200e+04   1.7239113308922390e+06   8.0655010565100776e+04   1.3014785027068744e+05   1.1339129537630402e+06   4.9211976306214480e+05   1.1037416324424573e+05   1.4574329203931491e+06   1.4800164724382560e+05   3.0105145122193717e+04   2.0314139440643613e+06   2.0047283882960598e+06   1.2895872021154589e+05   8.6911653442153276e+05   8.2306380802322630e+04   3.0386240631178993e+04   7.9374323745665350e+05   8.4100557417035475e+05   3.1323094731334593e+04   1.9936738967397049e+05   1.4481695933122071e+06   1.0912591118726272e+06   6.5261938518876804e+05   6.3630648729780252e+04   1.3779383140802080e+04   7.5941961709971039e+05   3.1730125202845582e+04   5.5769697083463974e+05   1.3143727691656302e+06   5.1107272450355848e+05   1.0105502094774354e+06   2.8165540339316684e+05   9.5902965985892655e+05   1.5452015597008916e+04   3.0829823065623699e+05   7.1639645568597119e+05   1.4858301170248420e+04   3.1946193906902201e+04   2.4964019629150393e+04   3.7352491046503378e+05   1.0677511439110392e+06   3.0064068118989561e+05   1.9774731957117136e+05   2.4399580406212676e+05   1.2278873760667357e+05   2.3216496656212465e+04   2.2266346534408564e+06   3.4889627512611455e+05   4.9337578773427573e+04   2.1709486955360777e+05   1.0431118885555275e+05   6.8306291095460963e+05   7.6447040203284065e+05   2.1823655077269785e+06   6.5265661398625001e+05   5.0498996289524785e+05   3.7826110220443014e+04   2.1783079555745026e+04   2.7254877914377011e+05   5.7502490597315817e+04   2.2009311259553521e+06   5.8899200390353356e+05   5.2730959198829508e+05   4.3680781982018717e+05   2.0591081760000414e+06   1.0350641969549019e+04   1.1312161665563635e+06   1.5448332001431537e+05   2.9222997747533769e+04   1.3167316160493030e+06   2.4404685789217398e+05   9.5888761582019812e+04   2.4870839918372012e+06   2.0502697251676086e+06   1.9097982509319688e+05   3.6862768292536517e+05   8.4823932821570931e+05   6.8413414758477639e+05   5.6785609925624181e+05   1.9934268321300406e+05   1.4674373941400711e+05   7.0367368344777625e+05   1.4778785895917397e+04   6.7715236715353956e+05   1.1968048617773878e+06   5.0285058271997688e+04   3.7649888083146041e+05   1.0538802741609912e+06   6.9869866848845326e+05   2.6075020249812485e+05   1.6354665935795624e+06   4.2323966733329929e+05   1.0591934682423277e+06   1.1535817703227506e+06   2.6103581075366016e+05   6.8108439252843789e+05   1.5795272104229892e+06   1.9547393823597962e+06   1.5017339748589462e+04   8.5676388183115036e+04   3.6794985818277601e+04   1.4749726058712038e+06   8.0507117983696837e+04   4.8125879864694754e+04   1.5621696915487761e+06   1.0708902737540051e+06   2.1676626826600470e+06   2.2440492445418006e+06   5.9340017138060604e+04   2.5504634677231205e+06   2.2814246785838548e+06   6.9208192687982824e+04   1.9139336149910081e+06   8.7090499706415721e+04   2.2472392426325791e+05   1.5350154846377454e+06   8.5038058387734025e+04   1.4471752002788035e+06   2.2585033502796301e+05   3.8392851942371659e+05   3.5929786252824953e+04   9.6404906906930424e+04   2.5215473181839814e+05   1.1979082961534183e+06   2.3724459285573019e+06   1.4889060135669641e+06   1.4963788662439480e+06   1.0839287612671605e+06   1.0979892306970667e+05   2.1756255300281807e+06   1.3537822092464487e+06   9.2834819872343587e+05   2.4576335099068125e+04   4.6913436148448952e+05   1.1729181748399108e+05   1.2605419347883353e+06   2.1726160002323837e+05   3.1096529204575116e+04   2.3527154118826957e+06   9.5679521125362709e+05   4.4699504043278511e+05   1.4685859651613180e+06   1.5321159187766330e+05   1.6263035746010374e+06   1.8631298287223946e+05   5.4258134195147629e+05   9.9910798506564170e+05   1.6974493226879658e+06   1.8281883624425629e+05   9.7698979337741144e+05   2.8410896770745971e+04   7.7801043064179496e+04   1.2986367831315668e+05   2.7896712382482980e+04   1.9362839409083488e+04   1.4813603736927330e+06   5.9831157397155499e+05   1.8876517956539104e+05   1.6161435732932793e+05   3.1014874392525904e+04   4.6300671890321124e+05   4.7990957834919123e+05   5.8300483389388968e+05   1.1529280627029915e+06   1.6545989077353468e+06   1.9581677283084116e+05   5.2912651672567311e+05   1.1558341407686227e+05   1.1049599068031223e+05   1.1595567907078965e+06   7.9440482248064270e+05   9.4573192203288025e+05   1.6114681240471466e+06   2.3644886071881833e+06   2.0748417639805409e+06   1.2436061214653323e+06   6.9979583616792178e+05   6.9860299382935965e+05   4.3467347032407532e+05   1.3481730628531170e+06   1.2928044121712223e+06   4.2292603853355075e+05   3.2069379972995962e+06   6.0771911183662152e+04   4.3867169277564150e+04   1.5963317885830998e+06   1.7690693141512409e+04   1.0495613282291194e+05   2.2609229779559318e+06   6.7249873504867719e+05   6.8655319780408044e+05   3.7925573644921428e+05   2.8183118584954250e+05   3.8264446978269603e+04   2.2768991120960214e+05   1.7664003738468031e+06   4.1973820220252068e+05   1.1741512448747302e+06   3.1369275124536467e+04   1.3393602387684297e+06   1.7149277883608888e+06   1.2484184363274685e+05   3.8354365059746872e+05   1.8200677926195049e+05   8.0347309611312917e+05   7.5070260550662832e+04   1.5785583644924613e+06   6.9616376967596618e+04   1.4861331617141317e+06   1.0421515777964829e+05   1.5623468293473218e+06   1.5942740443021073e+06   2.6228042165190542e+04   9.0823654418958363e+05   2.1869715068099358e+04   2.2456840151440138e+04   1.4287386280309744e+05   8.6401214216268665e+04   8.1315465946128403e+04   4.0322429197450646e+05   1.6614723880451024e+06   7.3171756329567637e+05   1.9972567008201440e+06   2.3316648757910501e+04   2.4454209340016436e+05   5.2188877134546527e+05   2.5201867195446999e+05   8.6371065561140767e+03   9.0060626708513009e+04   8.9699270902125732e+04   2.4551443558106176e+06   1.1336876181078288e+06   9.0439415727076516e+05   5.4987847245730045e+04   7.3532316181939328e+05   3.3215137101148936e+05   1.1435566534763607e+05   1.1758824499783115e+05   8.4641716305086484e+03   2.4745606535099819e+05   5.6827217561219388e+05   1.5154613875062172e+06   3.5609741457684489e+04   1.2865150128583255e+05   9.6938214381854911e+05   1.9591271796541786e+05   6.0710238433283160e+05   2.6671728681914945e+05   1.1584239863705903e+06   6.5612619423345459e+04   4.7015357592938183e+05   2.8467757059315431e+04   1.5905040506026377e+06   2.2680876411372060e+06   8.0094413589713967e+05   1.1261833646556456e+06   5.1253571078403975e+05   7.4813464070785718e+04   4.2288482203745347e+05   8.8444904563178585e+04   9.8955774815011700e+03   3.0440100360471286e+04   8.4527001472343574e+05   2.5644580745497806e+05   3.0211557158325880e+05   8.2248365246390495e+03   2.7069510001960304e+05   3.5857897745381261e+05   1.0259943536636996e+06   7.8467130844495841e+03   6.6935847370356065e+05   7.5674981949861813e+05   6.8277373715819849e+05   8.8388654345388443e+05   6.9470428916765878e+05   9.1519524491696723e+05   3.9303888049943553e+05   1.1815920065274249e+04   3.3751533469968784e+05   2.1484558699164718e+04   3.1140855786473583e+05   1.2323535923285196e+06   6.0708399120604648e+04   5.4489775208012236e+05   1.7952278110235510e+06   5.2597414231546957e+05   8.0275346291641670e+05   1.1315868662168018e+06   7.0489369815482525e+04   8.8737269508876081e+05   1.0561674886033181e+06   6.1983028918426682e+05   4.0496095728477818e+05   6.7669905333367496e+04   2.0566943590320388e+06   2.4440162911449955e+05   2.5913381558030429e+06   1.6999194460811578e+06   4.4073467679982859e+05   9.2455199940198829e+04   3.3442440558460476e+04   7.3617464329449576e+05   1.9745545589509022e+06   7.6578235663289248e+04   4.9248545451851934e+05   5.0327581835436838e+05   5.2752672292368708e+05   5.3300411326940346e+05   2.2356643882870534e+05   1.3822164276565674e+06   4.8463003603178874e+05   9.2456682562810369e+04   4.9110707340075762e+05   1.4179227255748459e+06   1.9112985582837795e+06   1.1098015761182411e+06   8.2311572119038121e+05   1.3123070688112066e+06   2.1907451773006879e+05   7.3134741788285202e+05   1.6593807986915905e+06   1.5103693308027117e+06   1.0082282288411334e+06   1.3950167900545404e+06   8.9566827848957083e+05   2.7223913346683930e+04   3.5983493708938494e+05   2.4367566297875615e+04   1.9636481825994018e+04   3.0713150290096216e+06   6.5862141248708765e+04   8.8632440657037206e+05   1.0188607018099414e+06   1.0577319635327833e+06   1.3080766964853075e+06   7.5135053643032222e+05   7.9511347697363282e+05   1.5634216761388024e+06   1.2966891143162353e+06   3.4034351111582801e+04   6.4833743166122737e+05   1.1627715770918060e+05   1.1844191889536497e+06   1.9655241437761222e+06   3.1372090816835320e+05   1.3294811988730303e+06   1.8356028871490259e+05   2.5970549844888353e+05   3.3969662730946246e+05   1.1233479495062891e+06   2.4389047416582049e+05   2.3948474729069375e+05   1.4835824515400403e+06   1.0737307673256968e+06   6.0169675764601663e+04   3.4752585314420867e+04   2.8446826131299222e+06   7.4658822929658854e+04   6.4497059526214679e+05   7.8428693178280490e+05   1.7436351623294256e+06   1.4721865542998710e+06   7.8603002519774681e+05   3.7294706774713173e+04   1.5904639024642305e+04   5.7816111004837192e+04   1.7186996543183969e+06   2.6328175950147008e+04   3.9137514252904002e+04   7.3371414673481893e+05   4.5673585432855281e+04   3.2151194529439369e+05   1.6022687733110706e+04   3.8766589375381084e+05   1.2523950914227159e+06   1.6744520014664833e+06   1.5353310440978842e+05   1.1979568993442370e+05   6.2780138956975588e+05   9.3813809252723434e+05   6.6698824028132204e+05   8.1816553361822269e+05   8.5766846688852820e+05   1.0970536662881104e+06   4.7342920420686773e+04   3.7890436741801032e+03   9.5536025285878986e+03   8.5256741865761040e+04   8.8915655717793573e+05   2.5581854982453262e+05   2.4639241941403634e+04   2.0836391460782458e+05   7.5550169562905328e+04   8.3061765450206061e+04   3.6591196071065974e+05   4.7144347470239103e+04   9.2152915250247552e+03   1.9548604878253231e+06   6.1862497876299580e+05   2.1114694642076013e+06   9.6333134013310121e+05   4.0364441576288675e+05   3.0961837782778643e+05   8.0273375704147748e+05   7.6403745090419601e+04   2.6416207196919593e+04   1.5067647090244114e+06   2.4111109408165419e+04   1.1508495095606564e+04   1.1102568627558830e+06   2.6029951368208677e+06   2.7378361876648543e+06   2.3474987949373899e+06   3.0749050558300796e+06   2.6684418153188203e+05   1.2029891607945950e+06   8.5713965561713406e+05   6.1363588697629527e+05   3.1972689951085107e+04   3.7833790357993619e+05   1.0735583938332754e+06   3.1920611735443665e+04   2.4022462246950758e+06   5.0027534488708407e+03   6.7894194776587153e+05   3.0785308438387769e+05   3.3516838118336827e+05   2.0915000886484329e+05   5.9388811729308707e+05   1.5473899122864890e+06   1.8294238185367663e+05   7.7249683039861359e+05   1.9220129873970087e+05   2.4749463839078357e+05   1.4811713291059290e+06   1.3221276136068231e+05   2.4853485831380088e+05   1.1303758857719563e+06   1.4973861052330055e+06   1.9961964328349810e+06   6.6045127814121929e+05   1.0904208298687746e+06   9.9329321405229543e+05   5.6976651468746166e+05   2.1072939989230552e+05   5.4848418655944383e+05   3.1766088723075867e+05   1.5053799228421622e+05   2.2594034436786521e+05   2.6944696333541954e+05   9.8286791812390347e+03   6.6301084271513741e+05   2.0103955856915507e+06   8.7286357360686501e+05   1.3041782272016841e+06   1.7525409416497960e+06   9.5056224323161982e+05   2.1694291345482369e+05   1.0913692118989839e+06   1.1440839911231964e+06   1.4201638804212280e+06   1.1480495780851708e+06   2.8926920529458026e+05   3.2360253614586423e+05   3.6080512624456995e+05   1.3651178915565682e+05   1.6329779939491866e+05   2.1317283310636485e+05   1.0651801694997111e+06   1.1830613069012212e+06   8.4711342398299440e+05   2.7766983830324709e+04   1.2218205029202555e+06   1.5471868854353391e+05   7.4994769711450872e+05   2.5692613373789168e+05   2.0825859143445052e+06   8.2644471888760076e+04   3.1768521827627544e+05   5.9924884017958934e+05   1.3857028366397042e+05   1.1789346167765406e+05   1.3075729711680207e+06   1.0003302021141394e+05   7.0304299900051716e+04   8.0472578000362904e+05   1.8459952506125957e+05   4.5789203538276034e+05   1.2774858856063380e+05   2.0018913830686866e+06   8.5717664955904498e+05   6.7010204272648226e+05   9.6774025332615315e+05   1.2170137873471053e+06   2.5439769744849691e+05   6.6664748021413630e+04   7.6203951513347827e+04   1.0237438576265438e+06   1.7028189660770511e+06   1.3115210167915508e+05   9.0516353138807521e+05   1.6937701472047842e+05   6.3985517641171056e+05   1.9187203733862660e+05   2.8461680193557437e+04   5.7016283273027523e+05   1.1576708113980936e+05   1.7724801185465155e+06   4.2015115550906991e+05   1.5518601382564823e+06   4.2559222212710849e+05   1.0235697629198353e+06   2.1821521388094302e+05   1.5079106882938991e+04   3.2263351966296049e+05   2.1337668753548060e+05   1.2291708643937223e+06   2.2889418312518401e+06   2.4697479065346200e+05   3.3400527491886559e+05   1.8445240045112118e+06   1.8688653557349349e+04   1.0969350122824336e+05   2.4103192818570728e+05   1.4201756472246891e+04   1.6824911782983479e+06   1.4204649754035810e+06   1.6018903379254308e+05   8.4381504435425115e+04   3.3773968100633967e+04   1.3674780621528544e+05   2.3828053737951131e+06   9.0984379038144194e+04   3.0791843467329014e+06   2.2733205796984504e+06   6.0686342302304739e+05   1.1554858770306094e+06   6.9421658477367519e+05   8.7964356449055159e+05   1.9566448135965056e+04   7.1418554513298386e+03   9.1275688910722296e+04   1.6407312285270938e+06   5.6405967428837216e+05   5.4165794101836986e+05   1.6915780144835077e+06   1.7254517868422056e+06   9.7420528339438068e+04   4.2669617737048503e+05   5.6604565275341761e+05   1.5483998597411944e+06   1.6415365798634870e+06   1.5407489275222700e+06   3.6231253375328530e+05   1.5863923117454629e+06   5.6129180400164658e+05   9.0154002409129680e+04   7.6963016010233539e+05   1.6848567908657612e+06   2.8350855103861428e+04   2.0664251534661020e+04   5.5887294761157327e+05   1.0205472135144437e+06   3.2216166374173883e+05   7.9645051650269807e+05   1.4626675354561214e+06   5.4817079296788143e+05   1.4546645148223976e+05   4.3427193064368662e+05   6.4465582679145003e+05   5.3856885771420749e+05   2.6319508786177007e+05   3.0111504187803750e+05   1.7301065880495109e+05   4.8071572101894533e+05   9.1615917027274962e+04   2.0120495621819915e+06   6.6382908124270281e+04   8.5874948514027972e+04   2.0689402720137406e+05   5.3148380513266579e+05   7.0166618543180975e+05   2.7245403283388121e+05   4.7111007504055806e+05   5.8166974125369347e+05   5.7998696172572370e+05   1.1435052044596650e+04   3.8809588487508701e+05   2.1918119038848282e+05   5.6708022030509729e+05   1.6625703288314859e+06   1.2158761802348730e+05   4.3670156371540501e+05   2.2360444681446892e+06   3.7763127771621250e+04   1.1996898740706721e+05   2.0618748079590255e+06   3.5862473187129700e+05   8.4185474477750729e+04   4.7596142682570335e+05   3.4656188214438014e+04   6.0214144207154175e+04   3.0812770482324291e+05   7.4345576916441307e+04   1.8495896876549826e+06   1.6549114256286132e+05   4.6847290051666647e+05   9.1287203784676525e+05   5.2115862107977801e+05   4.8918162675169716e+05   2.2379992389392639e+06   2.5657186597721525e+06   2.2058103731894349e+06   2.8739055495047867e+06   2.0813436919592042e+05   6.4722673656830913e+05   1.1090529823589232e+06   7.4166667830287979e+05   3.9632620853112073e+05   5.9087996312323574e+05   4.7510981072465562e+04   8.2716781848312251e+05   1.3812429773412336e+05   6.2016743905423419e+05   1.0270231295467172e+06   3.0439345441489471e+06   1.5564725015687493e+06   1.3790454268830379e+06   3.2205801865502832e+04   3.1608867255580216e+05   1.5638112051935785e+06   5.8187466939138807e+05   1.4059051740986237e+05   1.4039196420649292e+04   4.3627849589524040e+05   6.2841103973404609e+05   3.2799750029593466e+04   4.3244514050943364e+05   1.1011616264555959e+06   1.0612510121104422e+05   1.2604047956569250e+05   3.3682902473374326e+06   2.1330938586010310e+04   7.2094931541187363e+05   3.2208351256511954e+05   3.4940408627374732e+05   8.8926241451202004e+04   1.0701384687562524e+06   6.6509669340941217e+05   8.8545459420236162e+04   5.3186664534434513e+05   8.2554900081430515e+05   4.8072270177067356e+05   1.3657222653631123e+06   1.0773298810535649e+05   7.5694916817895733e+04   3.3393600646136059e+04   2.1096547569375689e+05   1.7997098043352757e+06   7.1242690899005858e+04   2.0214426960625015e+06   1.9484049787862328e+04   1.7376063419334861e+06   5.9278656498592463e+05   1.5493947471219318e+06   4.8297479351123457e+05   3.2193904138562470e+06   2.2104235842018821e+04   8.8774779987842997e+05   1.0441165496557157e+06   8.1169965542023536e+04   4.9582247478410986e+05   1.8668901265448332e+05   1.1246473216025413e+06   9.2846061331102380e+05   1.2143344303953946e+06   3.5210958473564569e+04   3.3847079574678605e+05   1.8228167962887809e+06   2.5217793045764635e+06   7.4897655519182072e+05   2.3364760689790579e+06   2.9503347128597362e+05   2.6656372855637083e+05   2.3055343999921359e+05   6.8308265017999592e+05   2.7438305723553165e+06   7.6614291867429437e+05   1.2029708366935935e+06   4.5003012305941497e+05   2.3480749308609468e+05   9.7901955446114633e+04   1.9522476173759403e+06   1.1139125257545721e+06   1.9810987553440533e+04   1.1193893197478736e+06   6.7162854470479570e+05   7.6476235428923881e+05   2.2828505576975830e+06   7.9075651508340740e+05   8.7734095509340940e+05   1.7896108653516107e+05   1.4120284357615823e+06   9.3770737344284440e+04   5.6596901997527434e+05   6.8697022561433248e+05   9.3638805108127685e+05   1.3698924707204171e+06   4.0925617056436843e+05   1.6346998679902297e+06   2.1034469446488615e+05   6.2082767583938548e+05   3.9909077398662768e+04   2.5553923400274260e+05   3.5730565588833619e+05   1.4394781342493874e+05   1.3078718771547498e+06   8.5530812042526159e+04   9.0377723047110878e+04   1.6343024381435751e+06   3.4058967623868055e+04   1.7474246648521741e