<?xml version="1.0"?>
<VTKFile type="UnstructuredGrid"  version="0.1"  >
<UnstructuredGrid>
<Piece  NumberOfPoints="6792" NumberOfCells="27356">
<Points>
<DataArray  type="Float64"  NumberOfComponents="3"  format="ascii">1 0.04955 0  3.483770450905253e-06 0.04864772283650545 0  3.483770450905253e-06 0.04864772283650545 2.95  1 0.04955 2.95  0.9614914509556102 0.05602110176506378 0  0.9228377363943755 0.06157507032849151 0  0.8841171337688254 0.06664677567353106 0  0.8453497929027326 0.07134844014213877 0  0.8065426484628649 0.07571068168960433 0  0.767701037137778 0.07975227804287441 0  0.7288226488951823 0.08342258494612227 0  0.6899106911935076 0.08671747418051448 0  0.6509691924565468 0.08964194650917487 0  0.6119942987727893 0.09208716448646743 0  0.5729940670865327 0.0940815605996938 0  0.5339714366292608 0.09557108769574235 0  0.4949363525732989 0.09668736483495347 0  0.4558922053771201 0.09742219444114282 0  0.4168427532038373 0.09777652329987013 0  0.3777913478856202 0.09785960942865296 0  0.3387409476592283 0.09755952365518905 0  0.2996943532985683 0.09696002677821007 0  0.2606553968529943 0.09598397055157717 0  0.2216347829232145 0.0944397817471346 0  0.1826412248886092 0.09231999179026615 0  0.1436888477274173 0.08954718608240762 0  0.1048105786555559 0.08588484187305967 0  0.06610929802010608 0.08070523969887558 0  0.02799562603487961 0.07231569113842684 0  3.483770450905253e-06 0.04864772283650545 0.03986486486486478  3.483770450905253e-06 0.04864772283650545 0.07972972972972957  3.483770450905253e-06 0.04864772283650545 0.1195945945945947  3.483770450905253e-06 0.04864772283650545 0.1594594594594595  3.483770450905253e-06 0.04864772283650545 0.1993243243243243  3.483770450905253e-06 0.04864772283650545 0.2391891891891894  3.483770450905253e-06 0.04864772283650545 0.2790540540540542  3.483770450905253e-06 0.04864772283650545 0.318918918918919  3.483770450905253e-06 0.04864772283650545 0.3587837837837837  3.483770450905254e-06 0.04864772283650545 0.3986486486486485  3.483770450905253e-06 0.04864772283650545 0.4385135135135136  3.483770450905253e-06 0.04864772283650545 0.4783783783783784  3.483770450905253e-06 0.04864772283650545 0.5182432432432432  3.483770450905254e-06 0.04864772283650545 0.558108108108108  3.483770450905253e-06 0.04864772283650545 0.5979729729729731  3.483770450905253e-06 0.04864772283650545 0.6378378378378379  3.483770450905253e-06 0.04864772283650545 0.6777027027027027  3.483770450905254e-06 0.04864772283650545 0.7175675675675675  3.483770450905253e-06 0.04864772283650545 0.7574324324324325  3.483770450905253e-06 0.04864772283650545 0.7972972972972973  3.483770450905253e-06 0.04864772283650545 0.8371621621621621  3.483770450905254e-06 0.04864772283650545 0.8770270270270268  3.483770450905253e-06 0.04864772283650545 0.9168918918918917  3.483770450905253e-06 0.04864772283650545 0.9567567567567568  3.483770450905253e-06 0.04864772283650545 0.9966216216216216  3.483770450905254e-06 0.04864772283650545 1.036486486486486  3.483770450905253e-06 0.04864772283650545 1.076351351351351  3.483770450905253e-06 0.04864772283650545 1.116216216216216  3.483770450905253e-06 0.04864772283650545 1.156081081081081  3.483770450905253e-06 0.04864772283650545 1.195945945945946  3.483770450905253e-06 0.04864772283650545 1.235810810810811  3.483770450905253e-06 0.04864772283650545 1.275675675675676  3.483770450905253e-06 0.04864772283650545 1.315540540540541  3.483770450905253e-06 0.04864772283650545 1.355405405405405  3.483770450905253e-06 0.04864772283650545 1.39527027027027  3.483770450905253e-06 0.04864772283650545 1.435135135135135  3.483770450905253e-06 0.04864772283650545 1.475  3.483770450905253e-06 0.04864772283650545 1.514864864864865  3.483770450905253e-06 0.04864772283650545 1.55472972972973  3.483770450905253e-06 0.04864772283650545 1.594594594594595  3.483770450905253e-06 0.04864772283650545 1.634459459459459  3.483770450905253e-06 0.04864772283650545 1.674324324324324  3.483770450905253e-06 0.04864772283650545 1.714189189189189  3.483770450905253e-06 0.04864772283650545 1.754054054054054  3.483770450905253e-06 0.04864772283650545 1.793918918918919  3.483770450905253e-06 0.04864772283650545 1.833783783783784  3.483770450905253e-06 0.04864772283650545 1.873648648648649  3.483770450905254e-06 0.04864772283650545 1.913513513513514  3.483770450905253e-06 0.04864772283650545 1.953378378378378  3.483770450905253e-06 0.04864772283650545 1.993243243243243  3.483770450905253e-06 0.04864772283650545 2.033108108108108  3.483770450905254e-06 0.04864772283650545 2.072972972972973  3.483770450905253e-06 0.04864772283650545 2.112837837837838  3.483770450905253e-06 0.04864772283650545 2.152702702702702  3.483770450905253e-06 0.04864772283650545 2.192567567567567  3.483770450905253e-06 0.04864772283650545 2.232432432432432  3.483770450905253e-06 0.04864772283650545 2.272297297297297  3.483770450905253e-06 0.04864772283650545 2.312162162162162  3.483770450905253e-06 0.04864772283650545 2.352027027027027  3.483770450905254e-06 0.04864772283650545 2.391891891891892  3.483770450905253e-06 0.04864772283650545 2.431756756756757  3.483770450905253e-06 0.04864772283650545 2.471621621621622  3.483770450905253e-06 0.04864772283650545 2.511486486486486  3.483770450905253e-06 0.04864772283650545 2.551351351351351  3.483770450905253e-06 0.04864772283650545 2.591216216216216  3.483770450905253e-06 0.04864772283650545 2.631081081081081  3.483770450905253e-06 0.04864772283650545 2.670945945945946  3.483770450905253e-06 0.04864772283650545 2.710810810810811  3.483770450905253e-06 0.04864772283650545 2.750675675675675  3.483770450905253e-06 0.04864772283650545 2.79054054054054  3.483770450905253e-06 0.04864772283650545 2.830405405405405  3.483770450905253e-06 0.04864772283650545 2.87027027027027  3.483770450905253e-06 0.04864772283650545 2.910135135135135  0.9614914509556102 0.05602110176506378 2.95  0.9228377363943755 0.06157507032849151 2.95  0.8841171337688254 0.06664677567353106 2.95  0.8453497929027326 0.07134844014213877 2.95  0.8065426484628649 0.07571068168960433 2.95  0.767701037137778 0.07975227804287441 2.95  0.7288226488951823 0.08342258494612227 2.95  0.6899106911935076 0.08671747418051448 2.95  0.6509691924565468 0.08964194650917487 2.95  0.6119942987727893 0.09208716448646743 2.95  0.5729940670865327 0.0940815605996938 2.95  0.5339714366292608 0.09557108769574235 2.95  0.4949363525732989 0.09668736483495347 2.95  0.4558922053771201 0.09742219444114282 2.95  0.4168427532038373 0.09777652329987013 2.95  0.3777913478856202 0.09785960942865296 2.95  0.3387409476592283 0.09755952365518905 2.95  0.2996943532985683 0.09696002677821007 2.95  0.2606553968529943 0.09598397055157717 2.95  0.2216347829232145 0.0944397817471346 2.95  0.1826412248886092 0.09231999179026615 2.95  0.1436888477274173 0.08954718608240762 2.95  0.1048105786555559 0.08588484187305967 2.95  0.06610929802010608 0.08070523969887558 2.95  0.02799562603487961 0.07231569113842684 2.95  1 0.04955 0.03986486486486478  1 0.04955 0.07972972972972957  1 0.04955 0.1195945945945947  1 0.04955 0.1594594594594595  1 0.04955 0.1993243243243243  1 0.04955 0.2391891891891894  1 0.04955 0.2790540540540542  1 0.04955 0.318918918918919  1 0.04955 0.3587837837837837  1 0.04955 0.3986486486486485  1 0.04955 0.4385135135135136  1 0.04955 0.4783783783783784  1 0.04955 0.5182432432432432  1 0.04955 0.558108108108108  1 0.04955 0.5979729729729731  1 0.04955 0.6378378378378379  1 0.04955 0.6777027027027027  1 0.04955 0.7175675675675675  1 0.04955 0.7574324324324325  1 0.04955 0.7972972972972973  1 0.04955 0.8371621621621621  1 0.04955 0.8770270270270268  1 0.04955 0.9168918918918917  1 0.04955 0.9567567567567568  1 0.04955 0.9966216216216216  1 0.04955 1.036486486486486  1 0.04955 1.076351351351351  1 0.04955 1.116216216216216  1 0.04955 1.156081081081081  1 0.04955 1.195945945945946  1 0.04955 1.235810810810811  1 0.04955 1.275675675675676  1 0.04955 1.315540540540541  1 0.04955 1.355405405405405  1 0.04955 1.39527027027027  1 0.04955 1.435135135135135  1 0.04955 1.475  1 0.04955 1.514864864864865  1 0.04955 1.55472972972973  1 0.04955 1.594594594594595  1 0.04955 1.634459459459459  1 0.04955 1.674324324324324  1 0.04955 1.714189189189189  1 0.04955 1.754054054054054  1 0.04955 1.793918918918919  1 0.04955 1.833783783783784  1 0.04955 1.873648648648649  1 0.04955 1.913513513513514  1 0.04955 1.953378378378378  1 0.04955 1.993243243243243  1 0.04955 2.033108108108108  1 0.04955 2.072972972972973  1 0.04955 2.112837837837838  1 0.04955 2.152702702702702  1 0.04955 2.192567567567567  1 0.04955 2.232432432432432  1 0.04955 2.272297297297297  1 0.04955 2.312162162162162  1 0.04955 2.352027027027027  1 0.04955 2.391891891891892  1 0.04955 2.431756756756757  1 0.04955 2.471621621621622  1 0.04955 2.511486486486486  1 0.04955 2.551351351351351  1 0.04955 2.591216216216216  1 0.04955 2.631081081081081  1 0.04955 2.670945945945946  1 0.04955 2.710810810810811  1 0.04955 2.750675675675675  1 0.04955 2.79054054054054  1 0.04955 2.830405405405405  1 0.04955 2.87027027027027  1 0.04955 2.910135135135135  0.02944791791741266 0.02568335747494204 2.95  0.06739959802175059 0.01668366561318974 2.95  0.1060915934671822 0.0114166171279548 2.95  0.1449547383666263 0.007604877665367951 2.95  0.1839023190174623 0.004771824790359529 2.95  0.2228974856125079 0.002695594450099453 2.95  0.2619225864200277 0.00128693556074632 2.95  0.3009638072495824 0.0004163253864253591 2.95  0.3400130267334831 3.288562887322072e-05 2.95  0.3790640726433268 2.47154061469787e-05 2.95  0.4181111649963796 0.0005829877759681232 2.95  0.4571481818501018 0.001627730071789617 2.95  0.4961626158055384 0.003319136116869195 2.95  0.5351359076897134 0.005766114894123327 2.95  0.5740214695458749 0.009334357643371156 2.95  0.6127729623907119 0.01415938433770651 2.95  0.6514271884526235 0.0197089010257088 2.95  0.6899862259323538 0.02588876096486022 2.95  0.7285325503256527 0.03214961618260601 2.95  0.7670790796999662 0.038409
[...]
<CellData  Scalars="Hydrostatic_Stress"> 
<DataArray  type="Float64"  Name="Hydrostatic_Stress"  format="ascii">-4.9414930048220398e+04   3.2385408500617623e+03   3.6441045167879900e+04   4.1777980362531682e+05   -2.2994707912330670e+05   5.7119166099263402e+05   1.4144923593686253e+05   1.0643705937200561e+03   1.3942948566771740e+04   4.6134720537928471e+04   4.8262203434137843e+05   -5.5514494246575306e+05   -1.0438620913441288e+06   -6.5982120824765309e+05   -9.2780466247950366e+05   2.3191085463795025e+04   3.3933683949656071e+04   5.4917578993368559e+04   -8.9192962299931492e+05   -7.8950936165663879e+04   -2.3933931907830207e+05   -3.6885138417121733e+05   2.1186630238592430e+05   5.2655420505251607e+05   1.1834796222990101e+05   -3.1241563447415252e+05   -2.2702278139695761e+05   -1.5019830353387828e+04   -7.2761734992547481e+03   3.0162781304526696e+05   -6.5093093890571246e+04   -2.8699331072273350e+05   1.7017408055391214e+04   6.2710903311276366e+05   -2.9730609032262291e+05   -3.0367171051024902e+05   -4.1538152142142153e+03   -1.1954859021923266e+04   1.6600914968538957e+04   1.0409125584143327e+04   3.1682166911184966e+04   -1.1616835277670161e+05   -1.6377207339499347e+05   -2.3866108222199193e+04   3.0792354945314378e+03   8.0057924872695389e+02   2.3508868157887186e+03   1.3962137611471562e+04   -3.5648928908619692e+05   2.1968676665558750e+05   3.0943136777964223e+05   4.9625694957719261e+03   -1.7156908982504869e+05   -3.8092828271915561e+04   -4.7236165095823177e+04   2.0143983409527794e+05   1.6148484966420798e+04   7.7709931802555383e+05   -5.5917281618423185e+04   -2.1255223579686918e+05   1.1928475847059428e+03   -6.9504315976969519e+04   -7.0393847063292156e+05   1.8518080884446620e+05   -2.6144900430920973e+05   6.5214439397170790e+05   -1.9273185064027162e+04   7.7809031454280705e+02   1.5610108076953646e+04   4.4605052891744510e+05   -9.0453769619219063e+05   -7.7599305866713576e+03   -2.7729843236832693e+05   -1.6135945835425522e+04   -3.3471324154697627e+03   5.7867125401326653e+05   -2.0522436619853266e+04   1.8829187316541982e+04   -3.7360564749206154e+05   -1.5178956645419469e+05   1.3474917038257310e+04   -5.1511050550975476e+05   -4.0849831764489143e+04   -1.3688786182596628e+04   8.6360741559656709e+05   7.6434774796748138e+05   3.5449124498143705e+04   2.7788331229704362e+05   -1.9474612805074135e+04   6.2373792521471687e+03   2.5899706496914322e+05   2.6704033636080951e+05   -4.9225312264523182e+03   -5.9076727092500754e+04   4.5687935213972186e+05   -3.5499472089913738e+05   1.9364405056701464e+05   -1.4667650042119656e+04   1.0276790441665148e+02   2.4416992823084019e+05   6.4846818778463867e+03   -1.7859829897966530e+05   4.5138250477233669e+05   -1.1337691367514776e+05   -3.2735449728324689e+05   8.6063806682370559e+04   -3.0137225629497581e+05   6.1983470672848916e+03   -2.1050637528029096e+04   2.3588401083784021e+05   2.2539265595611396e+03   -1.0817032963318952e+03   -3.4827178346465676e+03   1.0281057479620498e+05   -3.4904654882688727e+05   -1.9139242108156628e+04   -5.4454632032691807e+04   -6.9797926646445223e+04   -3.4503864729921806e+04   -1.3202297878145275e+03   8.9020999710276490e+05   -1.0925015983465915e+05   -2.4007513682396861e+03   -6.6162372501357968e+04   -2.8432873850915439e+04   2.1569641336882100e+05   2.5618931724810775e+05   -8.5912236600614258e+05   -2.1003252999806966e+05   -1.0363810182927865e+05   -6.5578444662926868e+03   -7.2804294677427060e+02   -8.5732288333607357e+04   7.7086385582457033e+03   7.7274343135403295e+05   1.8934178619775895e+05   1.6917397840353986e+05   1.3819631227987338e+05   -7.0389359617847833e+05   1.4301193895464367e+03   3.6934042790024652e+05   -4.2307681773583179e+04   3.8092056641503455e+03   -4.3930615342391189e+05   5.4170300663286776e+04   -2.6084833137157886e+04   9.5698599725684372e+05   7.5140175850849343e+05   1.0796295313544539e+04   1.1079658814279021e+05   2.7135505071814085e+05   2.1328467352812013e+05   -1.7843505337880159e+05   6.0489206581852392e+04   -4.2971182199624258e+04   1.6935099758548153e+05   8.6282118073822164e+02   -1.9223015720837531e+05   4.0415068517396215e+05   -8.5788012495852490e+03   1.1925484114629842e+05   -3.8644679611833795e+05   -2.2458692392817972e+05   -7.8626718687916626e+04   -6.3850319822002435e+05   1.3597050627831725e+05   -3.0960546952392632e+05   -3.9739382589211030e+05   6.9875996148702718e+04   -2.1844106850839689e+05   -6.1270785280145577e+05   -6.5897725966163608e+05   2.0417462318064695e+03   4.5715530677030092e+03   -5.8705683169377444e+03   5.3858744265564368e+05   1.6052062267037845e+04   -2.7939460380807782e+03   -5.5295424709031882e+05   -3.1300062294452079e+05   -7.4988697704876214e+05   -7.7958782799243007e+05   1.0104082126500265e+04   1.1717333944566334e+06   -8.1123558255679219e+05   4.7734369788062968e+03   -6.9921737975178019e+05   -2.3027882862752005e+04   7.1248658750059025e+04   5.4946312391813844e+05   2.2351242459841189e+04   4.4764148523889226e+05   -5.3382826260258931e+04   1.2264522580038582e+05   1.3050886606160184e+03   9.9575436633392092e+03   7.4078761139223585e+04   -3.9519473437799426e+05   -8.4023945129364694e+05   5.7786728886612249e+05   -4.9748444674363808e+05   -3.5426128755572689e+05   -2.9296899305622981e+04   7.7204897344404436e+05   4.3794909355720115e+05   3.2911348590411735e+05   4.9120526132258492e+03   1.1382726329066698e+05   -1.7792306691155645e+03   -4.2413311712580215e+05   -6.1542462348408022e+04   4.2983651685044806e+03   -8.2959160564344563e+05   -3.4350432575179014e+05   1.0573251290371764e+05   4.6943211408095836e+05   3.4683330498247502e+04   6.4456143266791559e+05   3.6951083150419900e+03   -1.7199334167273573e+05   3.4830484503868310e+05   7.0509996716390748e+05   5.5477357377541572e+04   -1.7746818103710702e+05   5.9102986283432165e+03   2.0102987791178064e+04   -3.7142775613267142e+04   -3.5983336724353194e+02   2.1912131716352687e+03   -5.0233800317182287e+05   -1.9026716542253789e+05   1.4973365555163131e+04   -4.2548751223564446e+04   7.0983915714298273e+03   1.1146156041458437e+05   1.5128152676387169e+05   1.8694053380458403e+05   -3.2538415963466658e+05   -6.5567232140836853e+05   5.6320932055044934e+04   1.6281354828359510e+05   3.4625375282222900e+04   -3.0833677501869253e+04   3.8928643885590771e+05   -2.5473299104904628e+05   -3.1786303932470997e+05   6.6685359094590717e+05   1.0276501943060588e+06   7.2319201933909685e+05   4.0987300402061967e+05   2.2598474201142867e+05   1.7390219400383922e+05   9.9502786326676884e+04   5.1344312022652756e+05   3.1833055522880804e+04   5.1649130032280438e+04   -1.4364785504052429e+06   1.4473450601726239e+04   3.5825385761029638e+03   -5.2812751794259343e+05   -1.0441019985961721e+03   3.0436923774108673e+04   7.5974662780228944e+05   -2.1385637326656253e+05   -2.0071347648558009e+05   1.1919143747020097e+05   -8.2496552384234019e+04   3.6096447926731225e+03   -6.7860554548674554e+04   -6.5186691789232637e+05   1.3419886280537109e+05   -3.8233555759293848e+05   3.0102456322982034e+03   4.3094664017308649e+05   5.7474313167920290e+05   3.9203789493170443e+04   -1.1531915220973016e+05   -4.8067541161782006e+04   2.6306909562909219e+05   -1.6729263747946774e+04   -5.5364627402985108e+05   1.6967562251918996e+04   4.9942180586605286e+05   3.0734746335057684e+04   -5.1636240608053532e+05   6.3794440890304837e+05   5.5461834237234953e+03   2.9583664155914600e+05   -9.2598623242443875e+02   -1.0779612081436885e+03   3.9772400270009821e+04   1.0721614740031451e+04   -2.0054930711214802e+04   1.2963668489768468e+05   -5.9708829294341186e+05   2.2014745235587357e+05   -8.0856278569913853e+05   4.0830587367314865e+03   5.0673281234159193e+04   -1.6805919567782429e+05   7.9370180112871123e+04   1.4037595390553120e+03   -1.3702426520071729e+04   -1.3314904631701886e+04   1.0602738037438283e+06   3.7315486615868745e+05   -3.0154240508875175e+05   -9.5148186963903245e+03   -2.3998113389581232e+05   -1.0198287243174083e+05   -1.0791548958610023e+04   -1.1354079051689754e+04   1.1308782922431378e+03   -7.2824902395869489e+04   -1.7746846179234251e+05   -6.2476227257486037e+05   -2.7765571189999923e+03   -3.7514432334692043e+04   6.1536918828460635e+04   3.9615025858241839e+04   -7.7648327695412809e+04   -8.1323375755842673e+04   3.8256385327197833e+05   -1.0331608300006577e+04   1.1036704393291191e+05   -2.8357085598605436e+03   -6.6543015626034699e+05   -9.8972295175872988e+05   2.2236876777399439e+05   -3.7405567150673043e+05   1.6419772233083859e+05   2.0902878940224200e+04   -1.3370092474396818e+05   3.1154979856400428e+03   1.4722340463038720e+03   -4.9184599150593949e+03   2.6701145607339812e+05   5.0304999354302927e+04   -9.4383620180586280e+04   1.2519870093509182e+03   8.5275766356389373e+04   -9.8115634779813496e+04   4.1038287751449167e+05   1.4925795672680633e+03   6.0930790844906121e+04   -2.4099584908073826e+05   -2.1711059759452374e+05   -2.8476721913447295e+05   2.2615099581510885e+05   -3.0823101413238008e+04   -1.2496968182728993e+05   1.0984685126506656e+03   1.0930271996350371e+05   -7.6943388715492938e+02   9.3931980412321820e+04   4.0872858141217486e+05   -1.2855594077893476e+04   -1.5605055349702667e+05   6.4363898390406254e+05   -1.6290613208257628e+05   -2.5947851586107482e+05   -2.3676567670478535e+05   1.8574027831280200e+04   -2.7921496270889876e+05   3.4473349019514606e+05   3.9962988317615636e+04   -1.0331391822545766e+04   2.0056873869209219e+04   -7.0000190639805014e+05   -6.5499908241284989e+04   -9.6222086837640801e+05   -5.7114519782851159e+05   1.4062460624736486e+05   -2.3750718455981165e+04   7.4243445524385252e+03   -2.3920617367342513e+05   6.6352340029405465e+05   2.1185699943887717e+04   1.3469040350506786e+05   1.6103056244418802e+05   -4.1788418317513948e+04   -4.0292303212966588e+04   -5.1932092106177421e+04   -4.5624116298543318e+05   1.5741351859623077e+05   -2.2750877432704758e+04   1.2110224720802816e+05   -4.8397654866510304e+05   6.9880339426590875e+05   -3.6108878251086629e+05   -2.7016115754538408e+05   -4.3670778848506190e+05   -5.3225322984533479e+04   -2.5387947946525185e+05   5.7660576875079260e+05   5.0667512233762612e+05   2.6770050349622912e+05   4.6564710681821470e+05   2.8569703437546809e+05   -3.8574512709369887e+03   -1.1247641150485144e+05   -2.4782408703701913e+03   3.2122669733654770e+03   -1.3181888672858474e+06   1.7951451462071622e+04   -7.8661572499391317e+04   3.3609796919228777e+05   3.4801952772575908e+05   4.1592985367912432e+05   -2.4373772761415259e+05   -2.5816186997899163e+05   5.2736824194597988e+05   4.2781778131561994e+05   -4.5853063192856398e+03   2.1239150449595921e+05   3.4283757014582021e+04   3.9854820992825658e+05   -7.7943359159791574e+05   1.0051647044991661e+05   -4.5478105703381641e+05   4.9647755487900300e+04   4.8215487022047375e+04   -1.0149573096333149e+05   1.2138955645857193e+05   -2.0760111047292856e+04   -2.2924044118797410e+04   4.6195256221990386e+05   1.2987190976889689e+05   -1.1857884150566630e+04   -6.1017719735030787e+03   1.0220436883088285e+06   1.7994950622696088e+04   1.3418389007929590e+05   -2.4659507125962505e+05   5.8511720701045368e+05   -4.8581561597473203e+05   2.5840293227097535e+05   7.0198091562459440e+03   -1.4414873772383481e+02   5.1231882787449540e+03   6.0758143147108355e+05   -2.9171601460387565e+03   -7.3496414308057265e+03   2.3811405932118301e+05   -3.6305475962138671e+03   -9.5284406698231352e+04   2.5153084170476095e+03   1.1946487036259203e+05   -4.2059791746286332e+05   5.7790064207215142e+05   -3.0798063255642675e+04   -2.9485939650813179e+04   -1.5941436158977469e+05   5.9319628789925766e+04   -2.1605923994494264e+05   -1.3694206099829311e+05   -2.8019170513380133e+05   -3.6377248542815016e+05   7.7954532003573795e+03   2.2260740391434845e+02   6.5669171414393691e+02   -2.2504589441902168e+04   -2.9097977027032524e+05   8.0201212329612768e+04   -2.7302910634473164e+03   1.1469997503143324e+04   1.9411529859177332e+04   1.7287644252857903e+04   -1.1515073663850526e+05   -1.0455845713435980e+04   1.1280877670568796e+03   -6.7214780639556795e+05   -1.9510775780017045e+05   7.3326198676152446e+05   2.3444085180423938e+05   -1.2320150433745564e+04   -9.5926880711215606e+04   2.6770912583435967e+05   4.9257497079273508e+03   5.5138872221893589e+03   5.0356052188272745e+05   3.9395808056764599e+03   9.4067939856337841e+02   3.6330477785939624e+05   1.1832324151562855e+06   -9.5500922997046425e+05   -9.2010357459578791e+05   -1.0995711420824963e+06   -7.5904404637593951e+04   3.5078090687470022e+05   2.8035052190181043e+05   6.2692751391417485e+04   6.9930809962189815e+03   -1.1482936070505441e+05   4.2880263462947024e+05   -4.0230023763781705e+03   8.6645350076590828e+05   3.6079289086585010e+02   2.2118333388144031e+05   -8.5867632836972887e+04   -1.0529046195089586e+05   4.4516703273546518e+04   -1.8886373835473956e+05   -5.1357390640620544e+05   2.6096923918488839e+04   -2.4733640903174391e+05   -1.5677599726113081e+04   -7.6107241805586193e+04   6.1698963461615064e+05   3.3915239494091184e+04   7.7515606174930275e+04   3.7464496457890002e+05   -4.3369456009435601e+05   6.9325246416937129e+05   2.1088511708938333e+05   -3.5652531883539091e+05   3.6108117424879415e+05   1.6373731805063726e+05   6.5724277181492565e+04   5.5409288960008256e+04   9.7669110188146791e+04   -2.6237483128344003e+04   6.9491946797748067e+04   -6.9332005236924277e+04   1.4789937385556207e+03   2.1682068851516387e+05   -6.8852444081385224e+05   -3.1154223704145430e+05   -4.3115657682510075e+05   -6.9879490911389049e+05   3.0813011004297674e+05   2.4418662455520742e+04   3.6074803973346559e+05   3.7849841541676974e+05   4.9623509180501703e+05   -4.3526882472099079e+05   9.1108547410317376e+04   -8.2678690269147715e+04   -1.1276105656094753e+05   1.2129723753524195e+04   -4.5353310144397845e+04   -5.5306823079716167e+04   3.5130184511429869e+05   -3.8986946198204404e+05   2.7445132488395274e+05   5.2873773819046437e+03   -4.0827926015587262e+05   -6.0844597916653820e+03   -2.4105177061449623e+05   5.2149241577293855e+04   -7.2404887267720990e+05   1.9826586955550621e+04   1.0058051668480370e+05   1.0483202852662564e+05   -3.8707991521278782e+04   1.2955132089987077e+04   4.3874582965993689e+05   -2.6026231311820455e+04   -2.0162032389349549e+03   2.6624320521752734e+05   -3.9632627591893950e+04   -3.1944687444971576e+04   -3.2783175138397426e+04   -8.3625389738240629e+05   1.8571411928464522e+05   1.5781733235988906e+05   3.2163924039292103e+05   4.0069329986479372e+05   -3.5351812316224408e+04   1.7859371663367485e+04   2.0350860775916703e+04   3.3974079403785523e+05   5.9160822222443833e+05   3.6032841116596581e+04   2.9548003165434184e+05   3.7486048710188385e+04   2.0485757989521301e+05   5.8978902653975594e+04   4.4572896031269520e+03   1.7865246002956454e+05   1.2258780964237765e+04   6.0331772100317781e+05   -1.2335601561911200e+05   -5.1328427046837588e+05   -1.2494122485162849e+05   -3.3304185584625107e+05   -6.3790123490600097e+04   9.0265559543823315e+02   6.8013129101791623e+04   1.5713699940712955e+04   1.1519283231122296e+05   -8.0927125341915118e+05   7.7388310233947210e+04   7.7509798887345547e+04   6.4429943653432035e+05   3.0879553201843642e+03   3.1403474255643087e+04   4.9474207516121038e+04   1.0246239506570828e+03   -5.5367970750457118e+05   -4.6812484211459884e+05   -4.0680055466394610e+04   -2.0999432133170067e+03   5.7610243478259154e+03   4.3551688585414813e+04   -8.3715809449720918e+05   -2.4013720745449977e+04   -1.3662616300667676e+06   -9.3161403770668269e+05   -1.9432130663260480e+05   3.8262265533738851e+05   -1.4696709719636816e+04   -2.8001096482157352e+05   -1.4701561803743007e+03   1.3129993073535966e+03   -2.0762665081972867e+04   -5.4408086100905156e+05   -5.2320679639570015e+04   -7.7211750164388068e+04   -6.3173974345904181e+05   7.3387821821819781e+05   1.0123105441807576e+04   1.3199272834657293e+05   -1.7909204820692123e+05   5.6130735501093720e+05   -5.4885518825390725e+05   -5.1071602874044841e+05   -1.0611539720844179e+05   5.4910110928476602e+05   -4.9455133642264635e+04   -2.1011392691176938e+04   -2.4891588651389396e+05   -5.5856909473709937e+05   -3.5887257330109092e+03   1.2915807789117373e+03   1.7419283558362580e+05   3.8507080551074236e+05   1.0326339733652149e+05   -2.5951284290990507e+05   -4.9187118993932015e+05   1.7676697585588106e+05   -4.2417210804407507e+04   -9.7122352977222963e+03   2.0343818343450545e+05   1.7379284208246006e+05   -7.6509068189101206e+04   6.3257221621758901e+04   -8.5810127726311748e+03   1.4699497187358449e+05   -2.0787932528614674e+04   -6.7185846199591144e+05   1.0860569368075792e+04   8.7361494488151438e+03   -4.0915808098101334e+04   -1.7050642561104652e+05   -2.2844188814049971e+05   3.3760823917497284e+04   1.4605110536140561e+05   -1.8507163166798968e+05   -1.8588522136656239e+05   8.1981836515728673e+02   -1.1992915329117543e+05   6.3446006643767272e+04   -1.8168082599287032e+05   -5.5953279296413972e+05   1.6850404750702510e+04   -1.4185507310104498e+04   -9.1262920385048538e+05   -5.4458634851549086e+03   3.5689328407542496e+04   7.2139131631723291e+05   -1.1094346208088323e+05   1.1106768991337181e+04   1.1379920353156931e+05   -5.0456384186212917e+03   1.5335088347496123e+04   -9.4995446869152947e+04   3.3084828110713361e+03   -6.2941843675737898e+05   -4.5930744271687618e+04   1.1527564404458228e+05   -2.7508849110582226e+05   1.5873358597821387e+05   4.5691149845005079e+04   9.8560483978774957e+05   -8.8559745184680307e+05   -7.6645097670364438e+05   -1.1843852171809271e+06   2.8658539771220090e+04   1.5483394514934998e+05   3.6802559536090668e+05   8.1641279221693534e+04   1.1086161894742471e+05   -1.8731719731433553e+05   -8.3010304293586178e+03   2.7161573189883807e+05   4.2299823081116891e+04   -1.9915285170060844e+05   -3.3705477703348926e+05   -1.1010591044062995e+06   5.2049048893705936e+05   4.8305419450558885e+05   7.0627410044391381e+03   -5.2136195106283638e+04   5.3358656869570515e+05   1.9027497533782179e+05   -3.0852212998636493e+04   2.0792820462417849e+03   1.4120628955352612e+05   -1.5603341297488514e+05   7.5265520353188658e+03   -1.2643425185419487e+05   -3.5928033186153654e+05   2.1405063744933643e+04   -3.5126519397001626e+04   1.5883247663017067e+06   1.1492806245230790e+03   2.3655430673978981e+05   -5.3245691814492580e+04   1.1309453936759547e+05   2.5897081506433649e+04   -3.4841678306707164e+05   -1.8808648755389327e+05   -2.9337080014693496e+04   1.7262991195530369e+05   2.7220434700441139e+05   -1.5261950374705213e+05   -4.7229072479166958e+05   -2.5852960952175359e+04   2.0998672888854402e+04   -2.3720072265887393e+03   5.5422578408489444e+03   -5.9999424967148935e+05   -1.4783327920047363e+04   -6.9067033103284531e+05   2.7960546352797002e+02   -6.8344213149819523e+05   -1.1548792527007582e+05   -5.1833477773206326e+05   -1.5618609425406205e+05   -1.2638400844309016e+06   -1.6928150972958217e+03   2.8818379313124216e+05   3.5565092741628597e+05   -1.6503279858897615e+04   -1.5745690700508401e+05   5.3660942720648294e+04   3.8591197530317341e+05   -2.9990664860972436e+05   3.9791609376550058e+05   8.2195430554302802e+03   8.4889663332303651e+04   7.2728900993099588e+05   -8.9448621749725635e+05   -2.4221116345264183e+05   8.2544745376533840e+05   -4.6901264294944587e+04   7.0081103779840239e+04   3.0220829801379907e+04   2.2462494576309671e+05   -1.0957931633337112e+06   -2.5224946723119915e+05   -3.9526886146147078e+05   -1.4290838414486760e+05   4.7883855041860879e+04   -4.7033257450976453e+03   -6.5876438716381241e+05   -3.6597533374283096e+05   9.8672493148594367e+02   -3.7106466569913930e+05   2.1656819495191012e+05   2.4760296502120781e+05   -8.3570206709095964e+05   -2.5851562711921631e+05   -2.8601573117620405e+05   -5.1670973834307231e+04   4.6949930286269158e+05   1.8562885884168854e+03   1.8323449677044799e+05   -2.1762574135572722e+05   -3.08846