<?xml version="1.0"?>
<VTKFile type="UnstructuredGrid"  version="0.1"  >
<UnstructuredGrid>
<Piece  NumberOfPoints="6792" NumberOfCells="27356">
<Points>
<DataArray  type="Float64"  NumberOfComponents="3"  format="ascii">1 0.04955 0  3.483770450905253e-06 0.04864772283650545 0  3.483770450905253e-06 0.04864772283650545 2.95  1 0.04955 2.95  0.9614914509556102 0.05602110176506378 0  0.9228377363943755 0.06157507032849151 0  0.8841171337688254 0.06664677567353106 0  0.8453497929027326 0.07134844014213877 0  0.8065426484628649 0.07571068168960433 0  0.767701037137778 0.07975227804287441 0  0.7288226488951823 0.08342258494612227 0  0.6899106911935076 0.08671747418051448 0  0.6509691924565468 0.08964194650917487 0  0.6119942987727893 0.09208716448646743 0  0.5729940670865327 0.0940815605996938 0  0.5339714366292608 0.09557108769574235 0  0.4949363525732989 0.09668736483495347 0  0.4558922053771201 0.09742219444114282 0  0.4168427532038373 0.09777652329987013 0  0.3777913478856202 0.09785960942865296 0  0.3387409476592283 0.09755952365518905 0  0.2996943532985683 0.09696002677821007 0  0.2606553968529943 0.09598397055157717 0  0.2216347829232145 0.0944397817471346 0  0.1826412248886092 0.09231999179026615 0  0.1436888477274173 0.08954718608240762 0  0.1048105786555559 0.08588484187305967 0  0.06610929802010608 0.08070523969887558 0  0.02799562603487961 0.07231569113842684 0  3.483770450905253e-06 0.04864772283650545 0.03986486486486478  3.483770450905253e-06 0.04864772283650545 0.07972972972972957  3.483770450905253e-06 0.04864772283650545 0.1195945945945947  3.483770450905253e-06 0.04864772283650545 0.1594594594594595  3.483770450905253e-06 0.04864772283650545 0.1993243243243243  3.483770450905253e-06 0.04864772283650545 0.2391891891891894  3.483770450905253e-06 0.04864772283650545 0.2790540540540542  3.483770450905253e-06 0.04864772283650545 0.318918918918919  3.483770450905253e-06 0.04864772283650545 0.3587837837837837  3.483770450905254e-06 0.04864772283650545 0.3986486486486485  3.483770450905253e-06 0.04864772283650545 0.4385135135135136  3.483770450905253e-06 0.04864772283650545 0.4783783783783784  3.483770450905253e-06 0.04864772283650545 0.5182432432432432  3.483770450905254e-06 0.04864772283650545 0.558108108108108  3.483770450905253e-06 0.04864772283650545 0.5979729729729731  3.483770450905253e-06 0.04864772283650545 0.6378378378378379  3.483770450905253e-06 0.04864772283650545 0.6777027027027027  3.483770450905254e-06 0.04864772283650545 0.7175675675675675  3.483770450905253e-06 0.04864772283650545 0.7574324324324325  3.483770450905253e-06 0.04864772283650545 0.7972972972972973  3.483770450905253e-06 0.04864772283650545 0.8371621621621621  3.483770450905254e-06 0.04864772283650545 0.8770270270270268  3.483770450905253e-06 0.04864772283650545 0.9168918918918917  3.483770450905253e-06 0.04864772283650545 0.9567567567567568  3.483770450905253e-06 0.04864772283650545 0.9966216216216216  3.483770450905254e-06 0.04864772283650545 1.036486486486486  3.483770450905253e-06 0.04864772283650545 1.076351351351351  3.483770450905253e-06 0.04864772283650545 1.116216216216216  3.483770450905253e-06 0.04864772283650545 1.156081081081081  3.483770450905253e-06 0.04864772283650545 1.195945945945946  3.483770450905253e-06 0.04864772283650545 1.235810810810811  3.483770450905253e-06 0.04864772283650545 1.275675675675676  3.483770450905253e-06 0.04864772283650545 1.315540540540541  3.483770450905253e-06 0.04864772283650545 1.355405405405405  3.483770450905253e-06 0.04864772283650545 1.39527027027027  3.483770450905253e-06 0.04864772283650545 1.435135135135135  3.483770450905253e-06 0.04864772283650545 1.475  3.483770450905253e-06 0.04864772283650545 1.514864864864865  3.483770450905253e-06 0.04864772283650545 1.55472972972973  3.483770450905253e-06 0.04864772283650545 1.594594594594595  3.483770450905253e-06 0.04864772283650545 1.634459459459459  3.483770450905253e-06 0.04864772283650545 1.674324324324324  3.483770450905253e-06 0.04864772283650545 1.714189189189189  3.483770450905253e-06 0.04864772283650545 1.754054054054054  3.483770450905253e-06 0.04864772283650545 1.793918918918919  3.483770450905253e-06 0.04864772283650545 1.833783783783784  3.483770450905253e-06 0.04864772283650545 1.873648648648649  3.483770450905254e-06 0.04864772283650545 1.913513513513514  3.483770450905253e-06 0.04864772283650545 1.953378378378378  3.483770450905253e-06 0.04864772283650545 1.993243243243243  3.483770450905253e-06 0.04864772283650545 2.033108108108108  3.483770450905254e-06 0.04864772283650545 2.072972972972973  3.483770450905253e-06 0.04864772283650545 2.112837837837838  3.483770450905253e-06 0.04864772283650545 2.152702702702702  3.483770450905253e-06 0.04864772283650545 2.192567567567567  3.483770450905253e-06 0.04864772283650545 2.232432432432432  3.483770450905253e-06 0.04864772283650545 2.272297297297297  3.483770450905253e-06 0.04864772283650545 2.312162162162162  3.483770450905253e-06 0.04864772283650545 2.352027027027027  3.483770450905254e-06 0.04864772283650545 2.391891891891892  3.483770450905253e-06 0.04864772283650545 2.431756756756757  3.483770450905253e-06 0.04864772283650545 2.471621621621622  3.483770450905253e-06 0.04864772283650545 2.511486486486486  3.483770450905253e-06 0.04864772283650545 2.551351351351351  3.483770450905253e-06 0.04864772283650545 2.591216216216216  3.483770450905253e-06 0.04864772283650545 2.631081081081081  3.483770450905253e-06 0.04864772283650545 2.670945945945946  3.483770450905253e-06 0.04864772283650545 2.710810810810811  3.483770450905253e-06 0.04864772283650545 2.750675675675675  3.483770450905253e-06 0.04864772283650545 2.79054054054054  3.483770450905253e-06 0.04864772283650545 2.830405405405405  3.483770450905253e-06 0.04864772283650545 2.87027027027027  3.483770450905253e-06 0.04864772283650545 2.910135135135135  0.9614914509556102 0.05602110176506378 2.95  0.9228377363943755 0.06157507032849151 2.95  0.8841171337688254 0.06664677567353106 2.95  0.8453497929027326 0.07134844014213877 2.95  0.8065426484628649 0.07571068168960433 2.95  0.767701037137778 0.07975227804287441 2.95  0.7288226488951823 0.08342258494612227 2.95  0.6899106911935076 0.08671747418051448 2.95  0.6509691924565468 0.08964194650917487 2.95  0.6119942987727893 0.09208716448646743 2.95  0.5729940670865327 0.0940815605996938 2.95  0.5339714366292608 0.09557108769574235 2.95  0.4949363525732989 0.09668736483495347 2.95  0.4558922053771201 0.09742219444114282 2.95  0.4168427532038373 0.09777652329987013 2.95  0.3777913478856202 0.09785960942865296 2.95  0.3387409476592283 0.09755952365518905 2.95  0.2996943532985683 0.09696002677821007 2.95  0.2606553968529943 0.09598397055157717 2.95  0.2216347829232145 0.0944397817471346 2.95  0.1826412248886092 0.09231999179026615 2.95  0.1436888477274173 0.08954718608240762 2.95  0.1048105786555559 0.08588484187305967 2.95  0.06610929802010608 0.08070523969887558 2.95  0.02799562603487961 0.07231569113842684 2.95  1 0.04955 0.03986486486486478  1 0.04955 0.07972972972972957  1 0.04955 0.1195945945945947  1 0.04955 0.1594594594594595  1 0.04955 0.1993243243243243  1 0.04955 0.2391891891891894  1 0.04955 0.2790540540540542  1 0.04955 0.318918918918919  1 0.04955 0.3587837837837837  1 0.04955 0.3986486486486485  1 0.04955 0.4385135135135136  1 0.04955 0.4783783783783784  1 0.04955 0.5182432432432432  1 0.04955 0.558108108108108  1 0.04955 0.5979729729729731  1 0.04955 0.6378378378378379  1 0.04955 0.6777027027027027  1 0.04955 0.7175675675675675  1 0.04955 0.7574324324324325  1 0.04955 0.7972972972972973  1 0.04955 0.8371621621621621  1 0.04955 0.8770270270270268  1 0.04955 0.9168918918918917  1 0.04955 0.9567567567567568  1 0.04955 0.9966216216216216  1 0.04955 1.036486486486486  1 0.04955 1.076351351351351  1 0.04955 1.116216216216216  1 0.04955 1.156081081081081  1 0.04955 1.195945945945946  1 0.04955 1.235810810810811  1 0.04955 1.275675675675676  1 0.04955 1.315540540540541  1 0.04955 1.355405405405405  1 0.04955 1.39527027027027  1 0.04955 1.435135135135135  1 0.04955 1.475  1 0.04955 1.514864864864865  1 0.04955 1.55472972972973  1 0.04955 1.594594594594595  1 0.04955 1.634459459459459  1 0.04955 1.674324324324324  1 0.04955 1.714189189189189  1 0.04955 1.754054054054054  1 0.04955 1.793918918918919  1 0.04955 1.833783783783784  1 0.04955 1.873648648648649  1 0.04955 1.913513513513514  1 0.04955 1.953378378378378  1 0.04955 1.993243243243243  1 0.04955 2.033108108108108  1 0.04955 2.072972972972973  1 0.04955 2.112837837837838  1 0.04955 2.152702702702702  1 0.04955 2.192567567567567  1 0.04955 2.232432432432432  1 0.04955 2.272297297297297  1 0.04955 2.312162162162162  1 0.04955 2.352027027027027  1 0.04955 2.391891891891892  1 0.04955 2.431756756756757  1 0.04955 2.471621621621622  1 0.04955 2.511486486486486  1 0.04955 2.551351351351351  1 0.04955 2.591216216216216  1 0.04955 2.631081081081081  1 0.04955 2.670945945945946  1 0.04955 2.710810810810811  1 0.04955 2.750675675675675  1 0.04955 2.79054054054054  1 0.04955 2.830405405405405  1 0.04955 2.87027027027027  1 0.04955 2.910135135135135  0.02944791791741266 0.02568335747494204 2.95  0.06739959802175059 0.01668366561318974 2.95  0.1060915934671822 0.0114166171279548 2.95  0.1449547383666263 0.007604877665367951 2.95  0.1839023190174623 0.004771824790359529 2.95  0.2228974856125079 0.002695594450099453 2.95  0.2619225864200277 0.00128693556074632 2.95  0.3009638072495824 0.0004163253864253591 2.95  0.3400130267334831 3.288562887322072e-05 2.95  0.3790640726433268 2.47154061469787e-05 2.95  0.4181111649963796 0.0005829877759681232 2.95  0.4571481818501018 0.001627730071789617 2.95  0.4961626158055384 0.003319136116869195 2.95  0.5351359076897134 0.005766114894123327 2.95  0.5740214695458749 0.009334357643371156 2.95  0.6127729623907119 0.01415938433770651 2.95  0.6514271884526235 0.0197089010257088 2.95  0.6899862259323538 0.02588876096486022 2.95  0.7285325503256527 0.03214961618260601 2.95  0.7670790796999662 0.038409
[...]
<CellData  Scalars="Sigma_zz"> 
<DataArray  type="Float64"  Name="Sigma_zz"  format="ascii">-1.5342354255134246e+05   8.2396935072035485e+03   1.0618209219473635e+05   1.2107757756823066e+06   -6.9453596203077305e+05   1.6925133487848523e+06   4.2371755658608052e+05   2.9485969512576748e+03   4.1827542394547330e+04   1.3661108246461750e+05   1.4360856235759519e+06   -1.6248714646310227e+06   -2.7574347054662490e+06   -1.7400792071613057e+06   -2.2341087054470764e+06   6.7948183277279735e+04   1.0301677573625259e+05   1.6365506159289135e+05   -2.5307652015070682e+06   -2.4141807436847201e+05   -7.1028798367155471e+05   -1.1012631404088237e+06   6.2860149859489244e+05   1.5622027180873740e+06   3.5486677367958159e+05   -9.3251108229533490e+05   -6.8050155402523512e+05   -3.8916616510293337e+04   -2.4358763909485679e+04   8.9867982340398140e+05   -2.0073587108340696e+05   -8.6143365258307150e+05   5.1295032934457769e+04   1.8611404288886872e+06   -8.9490716834533855e+05   -9.1941088888217637e+05   -1.6774724439671292e+04   -4.0740513000566207e+04   5.1014665373342636e+04   2.7710852030834933e+04   9.6711506333653742e+04   -3.4615364252465509e+05   -4.9671189577644208e+05   -7.6982548960939908e+04   8.8625786499457681e+03   -3.1292132108045644e+03   6.9047977775367281e+03   4.2001337854192985e+04   -1.0699500762458094e+06   6.5913052970820246e+05   9.2356554124437354e+05   1.3929433243903277e+04   -5.2010255589630594e+05   -1.2132564330986464e+05   -1.4640596064447393e+05   5.7278811223977339e+05   4.9528375322168889e+04   2.2130893572972813e+06   -1.6884753412231611e+05   -6.4038536967728566e+05   2.3948504610008235e+03   -2.1300297483222821e+05   -2.0468277186572910e+06   5.5764766933092324e+05   -7.5418582636078540e+05   1.8741853076711465e+06   -6.2211475286481116e+04   -3.9479287850553919e+03   4.5116436972221563e+04   1.2623954012445493e+06   -2.5626824394976501e+06   -2.4777892538777101e+04   -8.3511685316886718e+05   -5.1833399622596946e+04   -1.1648365946581982e+04   1.7199869891559263e+06   -6.5529390916100878e+04   5.4687828704265907e+04   -1.1161530245733070e+06   -4.6077613123631763e+05   3.8809711791419817e+04   -1.4719979370443388e+06   -1.2640924983497580e+05   -3.0346691106413233e+04   2.1263685436754539e+06   2.0569330643241534e+06   1.0705602474221590e+05   8.2551026111194270e+05   -6.2131627355269316e+04   1.9034104808374890e+04   7.8139916827919427e+05   7.9262071301345620e+05   -2.0456842166742972e+04   -1.8332202519095654e+05   1.3137343079810159e+06   -1.0686821268306749e+06   5.7912570512309705e+05   -4.7640278779734312e+04   -2.7194812268199780e+03   7.3110402847731416e+05   2.0555290221776391e+04   -5.3400841674268141e+05   1.3177697712528363e+06   -3.3950356138992211e+05   -9.8128367411054391e+05   2.5607698252285339e+05   -8.9974265566920966e+05   1.3035397675676735e+04   -6.6336254057621889e+04   7.0765596646330878e+05   8.3599608826012809e+03   -1.2248711572252298e+03   -1.6484785668272452e+04   3.1017226881614712e+05   -1.0483479391509418e+06   -6.0450205200417702e+04   -1.6476930393888027e+05   -2.1218481002542068e+05   -1.0818513201634491e+05   -6.4262045416958554e+03   2.3369451908336044e+06   -3.3388033630208275e+05   -9.4213541362701217e+03   -2.0337210744527128e+05   -8.9432091990499510e+04   6.4536997863602487e+05   7.3253153890687553e+05   -2.2860136519213906e+06   -6.2486412572732707e+05   -3.1551959167858941e+05   -2.5843687617370088e+04   -5.0343356928076455e+03   -2.6180980363087720e+05   2.1546873130356093e+04   2.2326282812501057e+06   5.6965453376234707e+05   5.0508376239101257e+05   4.1606419292457640e+05   -2.0684758031308444e+06   1.5149765243168779e+03   1.0902591338254611e+06   -1.3175542865415817e+05   1.0475489287586030e+04   -1.3116014857249563e+06   1.6093698971441636e+05   -8.4332604582011831e+04   2.5794676461197585e+06   2.1002541597290151e+06   3.3266381190441374e+04   3.2945361232790514e+05   8.1069554790902557e+05   6.3854200719887007e+05   -5.3979522464210435e+05   1.8223116326182845e+05   -1.3459813796429613e+05   5.0838521763927798e+05   -4.5947846211835868e+03   -5.7743380675139686e+05   1.1811377695949168e+06   -2.9353900906915696e+04   3.6239531042208913e+05   -1.0314941074470594e+06   -6.7718845214358810e+05   -2.3969091622567250e+05   -1.6919214567883250e+06   4.0962992224231531e+05   -9.2218617099950521e+05   -1.1533200266473568e+06   2.0982358296229606e+05   -6.6133586342140415e+05   -1.6315187214019559e+06   -1.9552771220755454e+06   4.3290556936808071e+03   1.1070460563268894e+04   -2.0581436878164521e+04   1.4647004702234052e+06   4.7612935848738925e+04   -9.7154814451193597e+03   -1.4129994980837053e+06   -9.3442737769972486e+05   -2.1865437834709906e+06   -2.2674959430446788e+06   2.9185437735161442e+04   2.7338985790316816e+06   -2.3220845923659843e+06   1.2496406400387681e+04   -1.9549124582048615e+06   -7.2918235701972400e+04   2.1584163779217261e+05   1.5284858384925171e+06   6.6664578883662776e+04   1.1412941150167021e+06   -1.6304195299878367e+05   3.6731139212775638e+05   3.3616315047487246e+03   3.0189954956000784e+04   2.1997052822121614e+05   -1.1856064785563482e+06   -2.4116401939498591e+06   1.5244539583229229e+06   -1.4879405910400252e+06   -1.0694864129096088e+06   -9.1851663634984317e+04   2.2068191063899877e+06   1.2958435629179480e+06   8.5626837792872475e+05   1.4595473776900948e+04   3.1959372028425615e+05   -7.2641940902391398e+03   -1.2429272973949227e+06   -1.8877060236537296e+05   1.1525947393888197e+04   -2.3893570310718636e+06   -9.0548598418157746e+05   3.1549626843095070e+05   1.3513915068500659e+06   1.0337498428094557e+05   1.6766122975249810e+06   8.6719976883513300e+03   -5.2126233744372398e+05   8.6349993585374381e+05   1.7365142909834008e+06   1.6536829787020787e+05   -4.8452765916800773e+05   1.8391688619323580e+04   5.9517514538355521e+04   -1.1745125757324614e+05   -2.6818694808121486e+03   6.1108010328419650e+03   -1.2918985471287104e+06   -5.7409715253445797e+05   4.3773715954845116e+04   -1.3027354316236330e+05   2.3660889728946800e+04   3.3285640867844253e+05   4.5207203452297143e+05   5.6132832904930727e+05   -8.3734364887303056e+05   -1.7128649774248051e+06   1.6698125824925199e+05   4.9040100998268812e+05   1.0437721151270992e+05   -9.7656908406236194e+04   1.1541487631376826e+06   -7.6594283583628747e+05   -9.2870099342059775e+05   1.6398063710391435e+06   2.5138499291834803e+06   2.0942145302358442e+06   1.2252310306997653e+06   6.7978384573559498e+05   5.1752092191519804e+05   2.9786230631335790e+05   1.3726585198819090e+06   3.4612760830505737e+04   1.5320409809887895e+05   -3.4695061863630461e+06   4.1722442289455357e+04   9.8175686663311499e+03   -1.5872003405456869e+06   -7.2504474878950841e+03   9.4704042564554431e+04   2.2635693816653192e+06   -6.4469785377971327e+05   -6.0463658142015617e+05   3.5909076415554696e+05   -2.5164706507856894e+05   1.0621920610859555e+04   -2.0733344038911405e+05   -1.7764792379943936e+06   4.0558278846344788e+05   -1.1467449117774151e+06   8.8290999368942394e+03   1.2787455848045985e+06   1.7103091656862411e+06   1.1329137002245520e+05   -3.5080757193155040e+05   -1.4190634891405757e+05   7.9206564507345180e+05   -5.3803887341562258e+04   -1.5743436871073712e+06   4.9397537054920773e+04   1.4810122941370141e+06   9.4453433313130634e+04   -1.5497992894155094e+06   1.6191756824846754e+06   1.4871877073406162e+04   8.8926750751847483e+05   -5.7530138985029762e+03   -5.8619518503434565e+03   1.1813422817785625e+05   2.9381849689925759e+04   -6.4304558010911634e+04   3.9026198032406927e+05   -1.6744586867912000e+06   6.5674344915219967e+05   -2.0903413314575793e+06   1.4391179737470831e+04   1.5067074095078892e+05   -5.1059430431600648e+05   2.4182351776339905e+05   2.9891188094556020e+02   -4.3134256715032796e+04   -4.2825158009390820e+04   2.5754375835667313e+06   1.1165574064141922e+06   -7.3486163979176176e+05   -3.1407804873923436e+04   -7.2396725493306562e+05   -3.0950458629302663e+05   -3.5199336112473429e+04   -3.7678842948751364e+04   -3.1239976196767440e+01   -2.2313968429724080e+05   -5.3077135810656706e+05   -1.5432651125591490e+06   -8.2982129071915606e+03   -1.1844067782066466e+05   1.5883528980109040e+05   1.1551508933262144e+05   -2.3553037764495818e+05   -2.4876051784379102e+05   1.1495048405013280e+06   -2.8885628167954917e+04   2.5020892600472935e+05   -1.1442408418780296e+04   -1.6154683975922724e+06   -2.4217635403874731e+06   6.6502690956579626e+05   -1.1161433642159244e+06   4.9195456223889027e+05   6.5943438352731071e+04   -4.0642679656657949e+05   8.8562875667546650e+03   -1.8811192135151177e+03   -1.9715257314733488e+04   8.0046741443993628e+05   1.4888368342858573e+05   -2.8848774629520386e+05   2.8766651392504281e+02   2.5440116034093511e+05   -2.9524820576690283e+05   9.9121318706817296e+05   1.3722020058724286e+03   1.7930242577365486e+05   -7.2355613514201017e+05   -6.5316115597362141e+05   -8.5832553895110369e+05   6.8078220863001479e+05   -9.7038273543511721e+04   -3.8240102230123233e+05   -3.6027001706458800e+03   3.2862265881247557e+05   -5.6065581799573274e+03   2.8130445069081202e+05   1.2168069736482443e+06   -4.1201336999254316e+04   -4.7314442875965743e+05   1.8173439253660017e+06   -4.9054872395455139e+05   -7.8057691617844638e+05   -6.2262335225555382e+05   5.6285041143863011e+04   -8.3833446460572816e+05   1.0394778687214198e+06   1.2153425689997633e+05   -3.0670634262748405e+04   5.5954116829628154e+04   -2.0631574629773353e+06   -2.0192299104981477e+05   -2.6759998418929754e+06   -1.6952910503189822e+06   4.2486664897765330e+05   -7.3522365062833473e+04   2.6806819139066527e+04   -7.2654613244625391e+05   1.9766866502429515e+06   6.7028494174638821e+04   3.9391270922897675e+05   4.7344418371877901e+05   -1.2628346316245823e+05   -1.2445723881866288e+05   -1.6110361625537431e+05   -1.3720914358950143e+06   4.7379568435860204e+05   -7.4441023361892934e+04   3.6246675368736446e+05   -1.3996521836730260e+06   1.9473033586784049e+06   -9.8771247275953786e+05   -8.0531730620712321e+05   -1.3049275475259684e+06   -1.6255997655680112e+05   -6.8120959285847994e+05   1.6708593087119281e+06   1.5056110417589040e+06   8.0108931990457920e+05   1.3876710111638049e+06   8.4802292232049082e+05   -1.6188379133413799e+04   -3.3998927045299613e+05   -1.2546513235868937e+04   9.8905230933757339e+03   -3.2935055911421175e+06   5.5283739363683773e+04   -1.6540318809955765e+05   1.0092981754246101e+06   1.0452644062935407e+06   1.2322236541176911e+06   -7.3538117441738618e+05   -7.7294453458633600e+05   1.5570144747324751e+06   1.2640833866216366e+06   -1.7347084459729103e+04   6.3615973747683852e+05   1.0645585529851899e+05   1.1665944882838775e+06   -2.0489141099684697e+06   3.0370021371493122e+05   -1.3084025431261798e+06   1.5008623329253608e+05   1.4021073068250588e+05   -3.0810813621157932e+05   3.5206279077167111e+05   -6.9473365798018902e+04   -7.0644801988227104e+04   1.1890819144536792e+06   3.8050653310019639e+05   -3.8782795413065607e+04   -2.2361708093183319e+04   2.9103747509461697e+06   5.3085271403645136e+04   3.9657685132680234e+05   -7.4513612094691372e+05   1.7414416376032415e+06   -1.4590284703090149e+06   7.7703151154809585e+05   1.8418473446602282e+04   -2.6056260416591099e+03   1.4084982368445131e+04   1.7334843270891532e+06   -1.2522818843172514e+04   -2.6472455152734969e+04   7.1545824060710927e+05   -9.3372093597282001e+03   -2.8867959615494922e+05   7.6562500444702237e+03   3.5769168163911888e+05   -1.2333205397590897e+06   1.6811937191118256e+06   -9.5760210512347767e+04   -8.9642134203071182e+04   -4.7850237953140563e+05   1.6202665700324310e+05   -6.5581921995157306e+05   -4.0902618927966931e+05   -8.4298197214195994e+05   -1.0875267686054194e+06   2.2460166154906045e+04   4.4250487205193150e+02   1.5680831439645524e+03   -7.3700936126109198e+04   -8.7594698172208667e+05   2.3928500746847806e+05   -1.2084750222669165e+04   3.1584184908223102e+04   5.6497291063228331e+04   5.2926824359572878e+04   -3.4914416372151935e+05   -3.7112202327704756e+04   -1.4187777583737329e+01   -1.9670923985589994e+06   -5.9180873639640526e+05   2.1308208061050205e+06   5.0854821032069606e+05   -3.8608227479283640e+04   -2.9097266918105126e+05   6.0425437425385788e+05   1.4282890810548688e+04   1.9458229304578075e+04   1.4997774424351421e+06   1.0876169118084248e+04   5.2229337949788555e+02   1.0902811174319917e+06   2.7669276242462727e+06   -2.7752797458418892e+06   -2.4463998130265577e+06   -3.1432387662099251e+06   -2.2580466553747209e+05   9.2441927810163039e+05   8.3596539774845494e+05   1.8704939546291684e+05   2.4164791135665972e+04   -3.4912434019985131e+05   1.0711658749102887e+06   -1.5439605890530851e+04   2.4595124374771942e+06   1.0452968379601175e+03   6.6088667272422812e+05   -2.6267651142029092e+05   -3.2005454414279235e+05   1.3306042678081393e+05   -5.7394769162189472e+05   -1.5348419779962301e+06   7.7045555547745666e+04   -7.4320447176949866e+05   -5.0969125543885042e+04   -2.3377859415975385e+05   1.4092059110088905e+06   1.0085681966437634e+05   2.3464734075858921e+05   1.1217019208082769e+06   -1.1598091101997446e+06   2.0132888944002490e+06   6.3006637751173857e+05   -1.0767179186692543e+06   9.2331974860639672e+05   4.9448372704908199e+05   1.9688258721222347e+05   1.6533329140144863e+05   2.8900138138893154e+05   -8.0662215404636634e+04   2.0794859509916115e+05   -2.0825977763326338e+05   1.0775043387069570e+03   6.5030568310544535e+05   -2.0206006854510631e+06   -7.6402355129412387e+05   -1.2890024629338547e+06   -1.8206797253010529e+06   9.1944768131346605e+05   7.2959165033000056e+04   1.0836306109207170e+06   1.1349404251434733e+06   1.1826636345309161e+06   -1.1090685577955085e+06   2.7546295425504417e+05   -2.5023909189221886e+05   -3.4578330669832462e+05   3.7333577354088760e+04   -1.3929265306224636e+05   -1.6882215856301293e+05   1.0562274877775677e+06   -1.1724336460129789e+06   8.2335804318119737e+05   1.5974269970418207e+04   -1.1914161078762694e+06   -1.9758538840121204e+04   -7.2394762214019115e+05   1.5476114131853101e+05   -2.1034503909447170e+06   5.8678917898099877e+04   3.0176275847760378e+05   3.1298013828669017e+05   -1.1933012980305508e+05   3.6421292831521758e+04   1.2997423819170708e+06   -8.2509515428138737e+04   -7.6811357381349608e+03   7.8562237733686750e+05   -1.2304395270976781e+05   -9.4775998332486066e+04   -1.0086299386362929e+05   -2.0992726334817265e+06   5.4714730026152555e+05   4.7170862921133841e+05   9.4848037403368088e+05   1.1969175339758373e+06   -1.0547895037229048e+05   5.5677236530347269e+04   5.8607583999557501e+04   1.0092359767827013e+06   1.7066376427861031e+06   1.0658520624357436e+05   8.8835627502567472e+05   1.0915864088107843e+05   6.1857686989421980e+05   1.7559639012618607e+05   1.3560005730739796e+04   5.2298383392459166e+05   3.5285009141736358e+04   1.7763304753443203e+06   -3.7269507464076940e+05   -1.5385260126907390e+06   -3.7999577138311492e+05   -9.9481367527018918e+05   -1.9673584619592270e+05   8.1313653131494380e+02   2.0366843417083728e+05   4.1648266013977242e+04   3.3607672072439070e+05   -2.3253078162474041e+06   2.3584471334664826e+05   2.3036849254256269e+05   1.8588026046880838e+06   8.1256365234433042e+03   9.2058012065650037e+04   1.4521871711160321e+05   8.6534833051093426e+02   -1.6630346979644196e+06   -1.4092649114344094e+06   -1.2527695863413195e+05   -8.3598943284874204e+03   1.6309467477521821e+04   1.2566262384031397e+05   -2.4172494515807498e+06   -7.5875165849361103e+04   -3.3018619133281494e+06   -2.2152231149047636e+06   -5.8509144302615093e+05   1.1181163325957356e+06   -8.5699823826379899e+04   -8.2990414444182813e+05   -8.8259316755710315e+03   3.3090099960691407e+02   -6.4490210985751888e+04   -1.6307830033772010e+06   -1.5758753082888282e+05   -2.3085147696005050e+05   -1.6275884491478270e+06   1.7766633703649691e+06   2.8699585595487260e+04   3.9476976377406297e+05   -5.3884937076059112e+05   1.5663628111318767e+06   -1.6356914656536432e+06   -1.5303987792502360e+06   -3.1711646475189191e+05   1.5985975336752592e+06   -1.5058667755110995e+05   -6.6016952946839112e+04   -7.5385452938758163e+05   -1.6787136060575142e+06   -1.8243454175509574e+04   2.6510056441525744e+03   5.0597019801292458e+05   1.0213680501245861e+06   3.1389124674144137e+05   -7.8111740778205101e+05   -1.2556231908979835e+06   5.2750106528117461e+05   -1.3216366431686212e+05   -3.1250811186965846e+04   6.0914538871537626e+05   5.1982646202095196e+05   -2.3188771907575775e+05   1.8748837874577410e+05   -2.6809294269521135e+04   4.4237491477287037e+05   -6.3518373161094554e+04   -2.0102044326222325e+06   2.9515589595461632e+04   2.5916175076837506e+04   -1.2709975938371719e+05   -5.1898682073310763e+05   -6.8994430922271288e+05   1.0147626372764778e+05   4.3290697920100985e+05   -5.5623329533829482e+05   -5.6474442878834915e+05   -3.1799928641886436e+03   -3.6054804271144496e+05   1.8926579446352326e+05   -5.4732734809928155e+05   -1.6587544700525654e+06   4.7627129590534489e+04   -4.3656539724919217e+04   -2.3615118245354062e+06   -1.9086563927099727e+04   1.0809215834860878e+05   2.0832555490132500e+06   -3.3726903970236523e+05   3.2115026762737754e+04   3.4126821605936892e+05   -1.8556813866666529e+04   4.8959772249496709e+04   -2.9217294329658698e+05   8.4277356296895123e+03   -1.8524556029928843e+06   -1.4034871256882115e+05   3.2509553350159409e+05   -8.1930491043219471e+05   4.6732564702604397e+05   1.3640707526563245e+05   2.3690923136362722e+06   -2.5920292147558006e+06   -2.2282978589477446e+06   -3.0496287935513686e+06   8.1073672757970984e+04   4.6079133391176292e+05   1.1010364373049801e+06   2.4838556112133618e+05   3.3026297223149915e+05   -5.6247098666096781e+05   -2.8073088052108043e+04   8.1710726907629287e+05   1.2733936236820197e+05   -5.7738254116810940e+05   -1.0141671979285959e+06   -3.1221824772120984e+06   1.5501254549535769e+06   1.3644250147970400e+06   2.3283557285873361e+04   -1.5899227104591380e+05   1.5677731382253743e+06   5.7234522015718115e+05   -9.5321414023405043e+04   7.4650342053908789e+03   4.2497505184985971e+05   -4.7195151410564565e+05   2.1436334325438722e+04   -3.8038615898073907e+05   -1.0590761817633910e+06   6.2168531722538792e+04   -1.0998328434785959e+05   3.7033709809687478e+06   2.4457632416998672e+03   7.1350701377511094e+05   -1.6176737743896563e+05   3.4283484358767635e+05   7.8679077739860964e+04   -1.0326371935610215e+06   -5.5995992763562046e+05   -8.8087461535877941e+04   5.1910075646664406e+05   8.1612476040915411e+05   -4.6303536775636993e+05   -1.3705017971908667e+06   -7.9218427731356569e+04   6.6290139360967616e+04   -9.1084990115142227e+03   1.5065586650783433e+04   -1.7967347892046778e+06   -4.6035436562193529e+04   -2.0305636014705782e+06   -1.2937870956677132e+03   -1.7547893894004051e+06   -3.4615896121629671e+05   -1.2469487950046882e+06   -4.7229986569932016e+05   -3.3825798523076833e+06   -7.1554634959447321e+03   8.5646698589742754e+05   1.0368431506175833e+06   -5.3294113760530468e+04   -4.7548285367678548e+05   1.5886093040266991e+05   1.1214177966852011e+06   -8.8951675507658359e+05   1.1948738113527226e+06   2.8424914877544656e+04   2.5174335374501036e+05   1.6804858350064929e+06   -2.5666998708235137e+06   -7.3517767324634711e+05   2.3755474610139197e+06   -1.4001870151566810e+05   2.1198592249846461e+05   8.8734731878795123e+04   6.6715012406647392e+05   -2.8856813419918143e+06   -7.4002610695484455e+05   -1.1916464217140987e+06   -4.3406562146981462e+05   1.3980860884060466e+05   -1.5265623344482137e+04   -1.9532907707431288e+06   -1.1017536405591217e+06   1.2402247228516942e+03   -1.1098813724715938e+06   6.5142305176740151e+05   7.4372109870681644e+05   -2.3408032288428862e+06   -7.7272683087885159e+05   -8.6129648149753711e+05   -1.5933361072412532e+05   1.4066030376748135e+06   3.5636232428336957e+03   5.5379533872785245e+05   -6.5899993964645534e+05   -9.225162473926552