<?xml version="1.0"?>
<VTKFile type="UnstructuredGrid"  version="0.1"  >
<UnstructuredGrid>
<Piece  NumberOfPoints="10958" NumberOfCells="41820">
<Points>
<DataArray  type="Float64"  NumberOfComponents="3"  format="ascii">1 0.04955 0  3.483770450905253e-06 0.04864772283650545 0  3.483770450905253e-06 0.04864772283650545 2.95  1 0.04955 2.95  0.9705745651584323 0.0546328692740541 0  0.9410403409854562 0.05904933268918263 0  0.9114506936029688 0.06307764259166145 0  0.8818365365778597 0.06692205633990718 0  0.852195425756178 0.07055529100758898 0  0.8225213484314672 0.07390813590379837 0  0.7928382076274137 0.07717791230068967 0  0.7631311412584285 0.08022519712851128 0  0.7333970986343074 0.08299595685799818 0  0.7036468593402103 0.08558339900696151 0  0.6738808305098906 0.08798485813956464 0  0.6440919092681797 0.09008334865923617 0  0.6142870835549664 0.09194561288677774 0  0.5844675933514397 0.09355367701932085 0  0.5546335832429207 0.09486496269114339 0  0.5247876530181904 0.095868659884793 0  0.4949363523436856 0.09668736484019783 0  0.4650802095563029 0.09731740696399105 0  0.4352195800941197 0.09768943189876603 0  0.405357042743103 0.09780828360274334 0  0.3754942534896675 0.09784351677757946 0  0.3456322298379585 0.09760772238205492 0  0.3157719755355017 0.09723970101506153 0  0.2859142869264596 0.09668561931752166 0  0.2560638915081948 0.09582390318294828 0  0.2262236143831659 0.09466390431188013 0  0.1964020995566796 0.09309886371899376 0  0.1665963941161298 0.09125714074218327 0  0.1368197180220126 0.08899319787719009 0  0.1070946678970156 0.08612945256268216 0  0.07746305623222323 0.08244010579101241 0  0.04805012948181673 0.07731042839253653 0  0.01932358256457366 0.06928107812002522 0  3.483770450905253e-06 0.04864772283650545 0.02979797979797999  3.483770450905253e-06 0.04864772283650545 0.05959595959595966  3.483770450905253e-06 0.04864772283650545 0.08939393939393965  3.483770450905253e-06 0.04864772283650545 0.1191919191919193  3.483770450905253e-06 0.04864772283650545 0.1489898989898993  3.483770450905253e-06 0.04864772283650545 0.178787878787879  3.483770450905253e-06 0.04864772283650545 0.2085858585858589  3.483770450905253e-06 0.04864772283650545 0.2383838383838386  3.483770450905253e-06 0.04864772283650545 0.2681818181818186  3.483770450905253e-06 0.04864772283650545 0.2979797979797986  3.483770450905253e-06 0.04864772283650545 0.3277777777777782  3.483770450905253e-06 0.04864772283650545 0.3575757575757582  3.483770450905253e-06 0.04864772283650545 0.3873737373737379  3.483770450905253e-06 0.04864772283650545 0.4171717171717179  3.483770450905253e-06 0.04864772283650545 0.4469696969696979  3.483770450905253e-06 0.04864772283650545 0.4767676767676775  3.483770450905253e-06 0.04864772283650545 0.5065656565656572  3.483770450905253e-06 0.04864772283650545 0.5363636363636372  3.483770450905253e-06 0.04864772283650545 0.5661616161616169  3.483770450905254e-06 0.04864772283650545 0.5959595959595969  3.483770450905253e-06 0.04864772283650545 0.6257575757575765  3.483770450905254e-06 0.04864772283650545 0.6555555555555564  3.483770450905253e-06 0.04864772283650545 0.6853535353535362  3.483770450905253e-06 0.04864772283650545 0.7151515151515158  3.483770450905253e-06 0.04864772283650545 0.7449494949494958  3.483770450905253e-06 0.04864772283650545 0.7747474747474755  3.483770450905253e-06 0.04864772283650545 0.8045454545454552  3.483770450905253e-06 0.04864772283650545 0.8343434343434351  3.483770450905253e-06 0.04864772283650545 0.8641414141414151  3.483770450905253e-06 0.04864772283650545 0.8939393939393945  3.483770450905254e-06 0.04864772283650545 0.9237373737373745  3.483770450905253e-06 0.04864772283650545 0.9535353535353545  3.483770450905254e-06 0.04864772283650545 0.9833333333333341  3.483770450905253e-06 0.04864772283650545 1.013131313131314  3.483770450905254e-06 0.04864772283650545 1.042929292929294  3.483770450905253e-06 0.04864772283650545 1.072727272727274  3.483770450905254e-06 0.04864772283650545 1.102525252525254  3.483770450905253e-06 0.04864772283650545 1.132323232323234  3.483770450905254e-06 0.04864772283650545 1.162121212121214  3.483770450905253e-06 0.04864772283650545 1.191919191919194  3.483770450905254e-06 0.04864772283650545 1.221717171717174  3.483770450905253e-06 0.04864772283650545 1.251515151515153  3.483770450905254e-06 0.04864772283650545 1.281313131313133  3.483770450905253e-06 0.04864772283650545 1.311111111111113  3.483770450905253e-06 0.04864772283650545 1.340909090909093  3.483770450905253e-06 0.04864772283650545 1.370707070707073  3.483770450905253e-06 0.04864772283650545 1.400505050505053  3.483770450905253e-06 0.04864772283650545 1.430303030303033  3.483770450905253e-06 0.04864772283650545 1.460101010101013  3.483770450905253e-06 0.04864772283650545 1.489898989898993  3.483770450905253e-06 0.04864772283650545 1.519696969696973  3.483770450905253e-06 0.04864772283650545 1.549494949494953  3.483770450905253e-06 0.04864772283650545 1.579292929292933  3.483770450905253e-06 0.04864772283650545 1.609090909090913  3.483770450905253e-06 0.04864772283650545 1.638888888888893  3.483770450905254e-06 0.04864772283650545 1.668686868686872  3.483770450905253e-06 0.04864772283650545 1.698484848484852  3.483770450905254e-06 0.04864772283650545 1.728282828282832  3.483770450905253e-06 0.04864772283650545 1.758080808080812  3.483770450905254e-06 0.04864772283650545 1.787878787878792  3.483770450905253e-06 0.04864772283650545 1.817676767676772  3.483770450905254e-06 0.04864772283650545 1.847474747474752  3.483770450905253e-06 0.04864772283650545 1.877272727272732  3.483770450905254e-06 0.04864772283650545 1.907070707070712  3.483770450905253e-06 0.04864772283650545 1.936868686868691  3.483770450905253e-06 0.04864772283650545 1.966666666666671  3.483770450905253e-06 0.04864772283650545 1.996464646464651  3.483770450905253e-06 0.04864772283650545 2.02626262626263  3.483770450905253e-06 0.04864772283650545 2.056060606060611  3.483770450905253e-06 0.04864772283650545 2.08585858585859  3.483770450905254e-06 0.04864772283650545 2.11565656565657  3.483770450905253e-06 0.04864772283650545 2.14545454545455  3.483770450905253e-06 0.04864772283650545 2.175252525252529  3.483770450905253e-06 0.04864772283650545 2.205050505050508  3.483770450905253e-06 0.04864772283650545 2.234848484848488  3.483770450905253e-06 0.04864772283650545 2.264646464646468  3.483770450905253e-06 0.04864772283650545 2.294444444444448  3.483770450905253e-06 0.04864772283650545 2.324242424242427  3.483770450905253e-06 0.04864772283650545 2.354040404040407  3.483770450905253e-06 0.04864772283650545 2.383838383838387  3.483770450905254e-06 0.04864772283650545 2.413636363636366  3.483770450905253e-06 0.04864772283650545 2.443434343434346  3.483770450905253e-06 0.04864772283650545 2.473232323232326  3.483770450905253e-06 0.04864772283650545 2.503030303030305  3.483770450905253e-06 0.04864772283650545 2.532828282828285  3.483770450905253e-06 0.04864772283650545 2.562626262626264  3.483770450905253e-06 0.04864772283650545 2.592424242424244  3.483770450905254e-06 0.04864772283650545 2.622222222222224  3.483770450905253e-06 0.04864772283650545 2.652020202020203  3.483770450905253e-06 0.04864772283650545 2.681818181818183  3.483770450905253e-06 0.04864772283650545 2.711616161616163  3.483770450905253e-06 0.04864772283650545 2.741414141414142  3.483770450905254e-06 0.04864772283650545 2.771212121212122  3.483770450905253e-06 0.04864772283650545 2.801010101010102  3.483770450905253e-06 0.04864772283650545 2.830808080808081  3.483770450905253e-06 0.04864772283650545 2.860606060606061  3.483770450905253e-06 0.04864772283650545 2.890404040404041  3.483770450905253e-06 0.04864772283650545 2.92020202020202  0.9705745651584323 0.0546328692740541 2.95  0.9410403409854562 0.05904933268918263 2.95  0.9114506936029688 0.06307764259166145 2.95  0.8818365365778597 0.06692205633990718 2.95  0.852195425756178 0.07055529100758898 2.95  0.8225213484314672 0.07390813590379837 2.95  0.7928382076274137 0.07717791230068967 2.95  0.7631311412584285 0.08022519712851128 2.95  0.7333970986343074 0.08299595685799818 2.95  0.7036468593402103 0.08558339900696151 2.95  0.6738808305098906 0.08798485813956464 2.95  0.6440919092681797 0.09008334865923617 2.95  0.6142870835549664 0.09194561288677774 2.95  0.5844675933514397 0.09355367701932085 2.95  0.5546335832429207 0.09486496269114339 2.95  0.5247876530181904 0.095868659884793 2.95  0.4949363523436856 0.09668736484019783 2.95  0.4650802095563029 0.09731740696399105 2.95  0.4352195800941197 0.09768943189876603 2.95  0.405357042743103 0.09780828360274334 2.95  0.3754942534896675 0.09784351677757946 2.95  0.3456322298379585 0.09760772238205492 2.95  0.3157719755355017 0.09723970101506153 2.95  0.2859142869264596 0.09668561931752166 2.95  0.2560638915081948 0.09582390318294828 2.95  0.2262236143831659 0.09466390431188013 2.95  0.1964020995566796 0.09309886371899376 2.95  0.1665963941161298 0.09125714074218327 2.95  0.1368197180220126 0.08899319787719009 2.95  0.1070946678970156 0.08612945256268216 2.95  0.07746305623222323 0.08244010579101241 2.95  0.04805012948181673 0.07731042839253653 2.95  0.01932358256457366 0.06928107812002522 2.95  1 0.04955 0.02979797979797999  1 0.04955 0.05959595959595966  1 0.04955 0.08939393939393965  1 0.04955 0.1191919191919193  1 0.04955 0.1489898989898993  1 0.04955 0.178787878787879  1 0.04955 0.2085858585858589  1 0.04955 0.2383838383838386  1 0.04955 0.2681818181818186  1 0.04955 0.2979797979797986  1 0.04955 0.3277777777777782  1 0.04955 0.3575757575757582  1 0.04955 0.3873737373737379  1 0.04955 0.4171717171717179  1 0.04955 0.4469696969696979  1 0.04955 0.4767676767676775  1 0.04955 0.5065656565656572  1 0.04955 0.5363636363636372  1 0.04955 0.5661616161616169  1 0.04955 0.5959595959595969  1 0.04955 0.6257575757575765  1 0.04955 0.6555555555555564  1 0.04955 0.6853535353535362  1 0.04955 0.7151515151515158  1 0.04955 0.7449494949494958  1 0.04955 0.7747474747474755 
[...]
<PointData  Vectors="Displacement"> 
<DataArray  type="Float64"  Name="Displacement"  NumberOfComponents="3" format="ascii">0.0000000000000000e+00 0.0000000000000000e+00 0.0000000000000000e+00  0.0000000000000000e+00 0.0000000000000000e+00 0.0000000000000000e+00  6.4890459785178420e-05 -4.9445584639082356e-03 7.0090238035243077e-06  6.4972215660365706e-05 -4.9659245269289259e-03 -2.0698819049492915e-05  0.0000000000000000e+00 0.0000000000000000e+00 0.0000000000000000e+00  0.0000000000000000e+00 0.0000000000000000e+00 0.0000000000000000e+00  0.0000000000000000e+00 0.0000000000000000e+00 0.0000000000000000e+00  0.0000000000000000e+00 0.0000000000000000e+00 0.0000000000000000e+00  0.0000000000000000e+00 0.0000000000000000e+00 0.0000000000000000e+00  0.0000000000000000e+00 0.0000000000000000e+00 0.0000000000000000e+00  0.0000000000000000e+00 0.0000000000000000e+00 0.0000000000000000e+00  0.0000000000000000e+00 0.0000000000000000e+00 0.0000000000000000e+00  0.0000000000000000e+00 0.0000000000000000e+00 0.0000000000000000e+00  0.0000000000000000e+00 0.0000000000000000e+00 0.0000000000000000e+00  0.0000000000000000e+00 0.0000000000000000e+00 0.0000000000000000e+00  0.0000000000000000e+00 0.0000000000000000e+00 0.0000000000000000e+00  0.0000000000000000e+00 0.0000000000000000e+00 0.0000000000000000e+00  0.0000000000000000e+00 0.0000000000000000e+00 0.0000000000000000e+00  0.0000000000000000e+00 0.0000000000000000e+00 0.0000000000000000e+00  0.0000000000000000e+00 0.0000000000000000e+00 0.0000000000000000e+00  0.0000000000000000e+00 0.0000000000000000e+00 0.0000000000000000e+00  0.0000000000000000e+00 0.0000000000000000e+00 0.0000000000000000e+00  0.0000000000000000e+00 0.0000000000000000e+00 0.0000000000000000e+00  0.0000000000000000e+00 0.0000000000000000e+00 0.0000000000000000e+00  0.0000000000000000e+00 0.0000000000000000e+00 0.0000000000000000e+00  0.0000000000000000e+00 0.0000000000000000e+00 0.0000000000000000e+00  0.0000000000000000e+00 0.0000000000000000e+00 0.0000000000000000e+00  0.0000000000000000e+00 0.0000000000000000e+00 0.0000000000000000e+00  0.0000000000000000e+00 0.0000000000000000e+00 0.0000000000000000e+00  0.0000000000000000e+00 0.0000000000000000e+00 0.0000000000000000e+00  0.0000000000000000e+00 0.0000000000000000e+00 0.0000000000000000e+00  0.0000000000000000e+00 0.0000000000000000e+00 0.0000000000000000e+00  0.0000000000000000e+00 0.0000000000000000e+00 0.0000000000000000e+00  0.0000000000000000e+00 0.0000000000000000e+00 0.0000000000000000e+00  0.0000000000000000e+00 0.0000000000000000e+00 0.0000000000000000e+00  0.0000000000000000e+00 0.0000000000000000e+00 0.0000000000000000e+00  0.0000000000000000e+00 0.0000000000000000e+00 0.0000000000000000e+00  -4.4590047304946528e-08 9.4959233523393782e-07 1.1819909158745660e-07  1.0954340873360601e-07 4.8273424828824286e-07 5.0492519530172727e-07  2.8110075675144834e-07 -1.4550422237779741e-06 9.4800771574851020e-07  4.7220536679446697e-07 -5.2783640244906278e-06 1.0788348411988781e-06  4.5271687934782831e-07 -1.0952566279714836e-05 1.2457772210717300e-06  6.9383326592229055e-07 -1.8651832550000374e-05 1.3639554635169803e-06  8.0981911728426199e-07 -2.8542471856950572e-05 1.3929731056955292e-06  9.1702389569223750e-07 -4.0038108021723678e-05 1.7957257154543157e-06  1.1668775646503681e-06 -5.3430388344184645e-05 1.9524962217042970e-06  1.2867050690500795e-06 -6.8874348105810323e-05 2.0781266298659603e-06  1.6344907125548927e-06 -8.5962202305752623e-05 2.2709415278621945e-06  2.0028028249024761e-06 -1.0479803488052889e-04 2.3231990652538862e-06  2.1300985931300539e-06 -1.2558842122737524e-04 2.5113598653706661e-06  2.4726596191382402e-06 -1.4782335363781459e-04 2.2496927258748008e-06  2.6407283328579777e-06 -1.7169704541845953e-04 2.6612068948997284e-06  3.0976482718768054e-06 -1.9732455191989336e-04 2.6140613184306927e-06  3.4177551330309547e-06 -2.2403712963776099e-04 2.8148638933391382e-06  3.6533844781795958e-06 -2.5298090398131372e-04 3.0067812126234156e-06  4.1929240369936659e-06 -2.8324704155126225e-04 3.2189175425580957e-06  4.5542029398019294e-06 -3.1483786863746138e-04 2.9902238846235005e-06  4.9573100559535216e-06 -3.4746001827142280e-04 3.4411144219592336e-06  5.3460105475339446e-06 -3.8137992485317608e-04 3.8584172747376293e-06  6.0770363799469510e-06 -4.1669575221335554e-04 3.8863856580889664e-06  6.3682059206100075e-06 -4.5311390089166736e-04 3.9708042280195917e-06  7.0357274991012477e-06 -4.9064666454679690e-04 4.0630169228198755e-06  7.6168661287848809e-06 -5.2933642653993807e-04 3.8507448161639282e-06  7.9347613237182545e-06 -5.6956556987357071e-04 3.8213072383174751e-06  8.3561078250459171e-06 -6.1075693378811948e-04 4.1582753799397121e-06  8.9177325547285384e-06 -6.5332735631758458e-04 4.3751033242670954e-06  9.5623696601012600e-06 -6.9681483883932789e-04 4.5431787473628182e-06  1.0095954275122871e-05 -7.4116713136981806e-04 4.6842621366478346e-06  1.0715851873167325e-05 -7.8649806809219514e-04 4.8099702267989578e-06  1.1377566208229502e-05 -8.3291558852378032e-04 4.8488183254785477e-06  1.2012883353809924e-05 -8.8035048447252992e-04 4.7160292991389497e-06  1.2502114368554100e-05 -9.2837577120111116e-04 4.7972463761346910e-06  1.3069081147849118e-05 -9.7737296757119461e-04 5.1134958423044018e-06  1.3863701768008155e-05 -1.0272951552268285e-03 5.1905324212579193e-06  1.4536366874959980e-05 -1.0780657932519353e-03 5.1986287736065456e-06  1.5202612843779982e-05 -1.1296383324191613e-03 5.0964573812269300e-06  1.5766064996878649e-05 -1.1817066148477305e-03 5.2870834720673153e-06  1.6462550473413870e-05 -1.2345870863298301e-03 5.4344764576454949e-06  1.7224142771234742e-05 -1.2884754327455240e-03 5.5859007618767603e-06  1.7836248999929945e-05 -1.3430407706173210e-03 5.6960518499990539e-06  1.8661790556391282e-05 -1.3982688435339708e-03 5.7512475851525864e-06  1.9405944983358076e-05 -1.4541966247229607e-03 5.7694630956084594e-06  2.0105703444997468e-05 -1.5107528654702163e-03 5.7808427991009847e-06  2.0868337473029987e-05 -1.5678008421737559e-03 5.6725304612643884e-06  2.1582421914311008e-05 -1.6254563133276377e-03 5.8010969213765955e-06  2.2289478633972072e-05 -1.6835870111699886e-03 5.8629276795283956e-06  2.3090416587164681e-05 -1.7423247883211763e-03 5.9583100419008463e-06  2.3835169576475960e-05 -1.8016953628913559e-03 6.1413947329410673e-06  2.4629723265754753e-05 -1.8614873844283160e-03 6.2178101530342395e-06  2.5482272618085385e-05 -1.9218129893987346e-03 6.1125642576003092e-06  2.6183140578468716e-05 -1.9824875438306834e-03 6.1645628866918172e-06  2.7039881879292078e-05 -2.0436543063494551e-03 6.1769629265805478e-06  2.7782209375118831e-05 -2.1052428703495895e-03 6.2303723859138890e-06  2.8578972406183325e-05 -2.1671382592295925e-03 6.3054438025204866e-06  2.9362600935372780e-05 -2.2294450545330769e-03 6.4671037052933323e-06  3.0240131524452247e-05 -2.2921001237724103e-03 6.5093587577516571e-06  3.1084344917728862e-05 -2.3550621901136494e-03 6.4336816302413226e-06  3.1842970205657185e-05 -2.4183654569039496e-03 6.4661452332781723e-06  3.2641764774534833e-05 -2.4820421140274622e-03 6.6232821614861839e-06  3.3556104988366174e-05 -2.5460428115898254e-03 6.6237661189410063e-06  3.4409994156143722e-05 -2.6103385031160551e-03 6.5823563375934865e-06  3.5213708803962203e-05 -2.6748925250557774e-03 6.5930920137871072e-06  3.6045744226777398e-05 -2.7396577450272282e-03 6.6995625143899337e-06  3.6875577500385330e-05 -2.8046744688052455e-03 6.7595248633387000e-06  3.7772010870446311e-05 -2.8698561202656109e-03 6.7698782477072502e-06  3.8595123893893373e-05 -2.9352929594406488e-03 6.7981571723756435e-06  3.9490074630865273e-05 -3.0009175341099590e-03 6.8096803739309647e-06  4.0360496871629229e-05 -3.0667355843112163e-03 6.7688565928478078e-06  4.1193738703020665e-05 -3.1327652358765401e-03 6.7821254791404665e-06  4.2045619090700737e-05 -3.1989174610345065e-03 6.8591885150230404e-06  4.2900104236323436e-05 -3.2652092511990275e-03 6.8806114013637253e-06  4.3786729531702427e-05 -3.3316671239425476e-03 6.9034876668175282e-06  4.4656332408514445e-05 -3.3982242076576702e-03 6.9015175393431924e-06  4.5524961218514560e-05 -3.4648905518369867e-03 6.9126051826057853e-06  4.6411189319234538e-05 -3.5316707055083026e-03 6.9009447045030163e-06  4.7281350116949494e-05 -3.5985445476694033e-03 6.9141872981249129e-06  4.8146974824500577e-05 -3.6655088768011860e-03 6.9373085319252024e-06  4.9014023818725531e-05 -3.7325265105113254e-03 6.9635661176739692e-06  4.9906143330155625e-05 -3.7996277671736127e-03 6.9739933239969528e-06  5.0776451584703994e-05 -3.8667753211676474e-03 6.9762677152194920e-06  5.1661711059174363e-05 -3.9339767262203925e-03 6.9808440362054845e-06  5.2543795722907062e-05 -4.0012198131242635e-03 6.9799079697580634e-06  5.3428451931996374e-05 -4.0685059408786120e-03 6.9780244979795912e-06  5.4304974003113359e-05 -4.1358220207646321e-03 6.9896378672855816e-06  5.5180931368780226e-05 -4.2031669506373366e-03 6.9983964015284035e-06  5.6067429215116855e-05 -4.2705346459585448e-03 7.0001713971545943e-06  5.6952716311704403e-05 -4.3379144500345183e-03 6.9989868498475948e-06  5.7835360210200119e-05 -4.4053083273220828e-03 7.0026027148661606e-06  5.8713876597862751e-05 -4.4727092702284560e-03 7.0075099888892860e-06  5.9596061714183572e-05 -4.5401172576768067e-03 7.0088319340768612e-06  6.0479956637472473e-05 -4.6075287618183806e-03 7.0092074522416095e-06  6.1363132385140097e-05 -4.6749384194108550e-03 7.0093980703525980e-06  6.2244466360411764e-05 -4.7423471087506656e-03 7.0087182035003495e-06  6.3127667061152186e-05 -4.8097539352624325e-03 7.0089116179210086e-06  6.4009196944321504e-05 -4.8771578258133006e-03 7.0089497626662166e-06  6.5067998184789591e-05 -4.9653663243646156e-03 -8.3086428460371942e-06  6.5153745564211637e-05 -4.9647944409229429e-03 2.5734627861465218e-06  6.5235019729622580e-05 -4.9642064333726491e-03 1.2577354931022568e-05  6.5312841468766547e-05 -4.9636073278717351e-03 2.2165199977262989e-05  6.5385650840975892e-05 -4.9630052271099449e-03 3.1274135831898584e-05  6.5452232619038814e-05 -4.9624049661804647e-03 3.9749970853835030e-05  6.5517210752269250e-05 -4.9618034791459060e-03 4.8036039797911188e-05  6.5578800573414691e-05 -4.9612015440153503e-03 5.5817933759725219e-05  6.5633962952046864e-05 -4.9605984162998324e-03 6.2974657678916980e-05  6.5687645623687307e-05 -4.9599943520647130e-03 6.9712401803256560e-05  6.5736234478644233e-05 -4.9593837002894102e-03 7.6030553555101282e-05  6.5780682542563291e-05 -4.9587694878932944e-03 8.1660047014932096e-05  6.5819677304400324e-05 -4.9581501977191828e-03 8.6757451221337471e-05  6.5855186987432034e-05 -4.9575321107133141e-03 9.1277692377160434e-05  6.5884014139005282e-05 -4.9569073730650675e-03 9.5128516622390580e-05  6.5909479487446501e-05 -4.9562803881299010e-03 9.8280800643166309e-05  6.5930009863386326e-05 -4.9556480359582589e-03 1.0101479002448000e-04  6.5947561885745570e-05 -4.9550110599534992e-03 1.0332235792415506e-04  6.5960950006109883e-05 -4.9543686849864111e-03 1.0504507198058075e-04  6.5968790792732325e-05 -4.9537226761775825e-03 1.0619584220236551e-04  6.5974389691371839e-05 -4.9530737598128139e-03 1.0715886508922169e-04  6.5974602790320143e-05 -4.9524198263493488e-03 1.0750909472454328e-04  6.5972553037029825e-05 -4.9517606806241182e-03 1.0755957386675561e-04  6.5967332682364676e-05 -4.9510968844201442e-03 1.0718990315985503e-04  6.5954053229801452e-05 -4.9504298804953755e-03 1.0612534848525808e-04  6.5933469864968121e-05 -4.9497584911131548e-03 1.0438585478549164e-04  6.5903585005192152e-05 -4.9490832664545823e-03 1.0173052225364192e-04  6.5867078073057240e-05 -4.9484043936672403e-03 9.8448257388131333e-05  6.5819120513678099e-05 -4.9477222196527924e-03 9.4211102333968674e-05  6.5755998733752326e-05 -4.9470378311883036e-03 8.8615103286292203e-05  6.5672496326168211e-05 -4.9463547272834158e-03 8.1148688964544666e-05  6.5555519976920427e-05 -4.9456733561894809e-03 7.0418637270348974e-05  6.5369690175350726e-05 -4.9450070869016208e-03 5.3107692586313033e-05  -2.3254680021184359e-07 4.8485572812488614e-07 -3.5787167561019082e-08  -4.2878852642748325e-07 9.6918252606245709e-08 -2.1114608632383642e-07  -4.9972633845670459e-07 -7.9559310576682330e-07 -6.6123025642992648e-07  -3.7440481466868916e-07 -4.4191978425754526e-06 -1.4276614202119437e-06  2.8806754335815747e-09 -8.5274448322480543e-06 -2.1284401138955632e-06  1.5436181600556364e-07 -1.3208064017183025e-05 -2.3494423624897359e-06  2.9973723801094096e-07 -2.2424258117829083e-05 -2.6738609554307521e-06  5.0820825818757868e-07 -3.2168819839092719e-05 -3.0414591336535286e-06  3.8488607567361153e-07 -4.3509906384801401e-05 -3.3540443435075011e-06  6.4126210068284404e-07 -5.6607034400964514e-05 -4.0135297227046889e-06  1.2544718617394091e-06 -7.1997717807477217e-05 -4.8864312147661238e-06  1.8527167652833613e-06 -8.8101385100739264e-05 -5.7767281413051644e-06  2.5419748857090990e-06 -1.0502308906262423e-04 -6.6227165103247017e-06  2.4793338958400826e-06 -1.2698133034012084e-04 -6.7320264280726117e-06  2.9334593662771697e-06 -1.5037552292988116e-04 -7.1205688584606449e-06  3.1802935494231951e-06 -1.7398604720887965e-04 -7.7245868316558795e-06  3.5554353406313214e-06 -2.0021405480427469e-04 -8.2663454545320662e-06  3.8816565241786027e-06 -2.2878502318464630e-04 -9.1422283132610293e-06  4.2119623653578852e-06 -2.5941334099642598e-04 -1.0093668502377857e-05  4.7467545017368577e-06 -2.9202337518100029e-04 -1.0320980837467655e-05  4.9584039498611492e-06 -3.2592754522766065e-04 -1.0523633986555697e-05  5.3764757516694846e-06 -3.6034057281054000e-04 -1.0899203513105187e-05  5.8813385207274470e-06 -3.9571153164569338e-04 -1.1166031057115145e-05  6.3002475486280863e-06 -4.3256651959995644e-04 -1.1603003279759901e-05  6.8792179323961518e-06 -4.7060653746667711e-04 -1.2109765958321070e-05  7.2943274724558938e-06 -5.0991292922782170e-04 -1.2150548414303660e-05  7.8259955837956399e-06 -5.5081098110064180e-04 -1.2949063720491478e-05  8.2729977307469266e-06 -5.9357739392394205e-04 -1.3303475865578355e-05  8.8249159690238692e-06 -6.3691292896673709e-04 -1.3691138894156098e-05  9.5889274589426402e-06 -6.8141322212571904e-04 -1.4154544818966363e-05  1.0223436682531889e-05 -7.2617624586663048e-04 -1.4380768045306883e-05  1.0782403570772357e-05 -7.7183734238694631e-04 -1.4429731731770942e-05  1.1433635481297313e-05 -8.1862907447735036e-04 -1.4827021568407542e-05  1.1995317506698106e-05 -8.6658345635259014e-04 -1.5179103493132785e-05  1.2549067886738036e-05 -9.1578192771802052e-04 -1.5185360607504648e-05  1.3244197556720088e-05 -9.6534821853758710e-04 -1.5646662004598057e-05  1.3988740166074160e-05 -1.0151589416997977e-03 -1.5694618244443256e-05  1.4719218400985991e-05 -1.0667043002234957e-03 -1.5963194481424576e-05  1.5330408979023896e-05 -1.1190360983628438e-03 -1.6333137975654381e-05  1.6059823869746781e-05 -1.1719896677789183e-03 -1.6615867625255118e-05  1.6704028350145976e-05 -1.2266111441334106e-03 -1.6941187021751773e-05  1.7388877386338198e-05 -1.2816715007914143e-03 -1.7113041056956622e-05  1.8103243773005762e-05 -1.3372943353290735e-03 -1.7365588159547853e-05  1.8826271244316300e-05 -1.3931731174652553e-03 -1.7430784030233261e-05  1.9562292433801458e-05 -1.4500469826777634e-03 -1.7507136533896897e-05  2.0302620429567043e-05 -1.5072385890803396e-03 -1.7709600957610328e-05  2.0966206086025566e-05 -1.5652519129579663e-03 -1.7849288629877951e-05  2.1721351948780680e-05 -1.6234761781508649e-03 -1.7964712453419305e-05  2.2418288328095877e-05 -1.6822286387599549e-03 -1.8215082722573441e-05  2.3281515447911736e-05 -1.7418176945157339e-03 -1.8388891667988913e-05  2.4044577757717291e-05 -1.8018620053833420e-03 -1.8522734080454545e-05  2.4773869344506757e-05 -1.8623770608237949e-03 -1.8764094420482092e-05  2.5552187699078819e-05 -1.9234202052610476e-03 -1.8934022327585790e-05  2.6349809276954994e-05 -1.9849399816090525e-03 -1.8951879472447954e-05  2.7112659135191940e-05 -2.0468366853762842e-03 -1.9124247022996874e-05  2.7918582753485227e-05 -2.1092112802527704e-03 -1.9257982549306872e-05  2.8775680666878890e-05 -2.1716983337890499e-03 -1.9356130523713554e-05  2.9549895423480840e-05 -2.2350025524018450e-03 -1.9465499080082400e-05  3.0314334286072200e-05 -2.2988136082590939e-03 -1.9557110124440128e-05  3.1096360475143498e-05 -2.3628362748392339e-03 -1.9702682787000372e-05  3.1909465133940582e-05 -2.4270162758648476e-03 -1.9790035704358339e-05  3.2755509858379339e-05 -2.4914605688422702e-03 -1.9866811258860578e-05  3.3624914714092795e-05 -2.5559201025931594e-03 -1.9944369079717429e-05  3.4471551566786984e-05 -2.6206159415132989e-03 -1.9973491948101403e-05  3.5328028346382842e-05 -2.6854535224377163e-03 -2.0062674785832946e-05  3.6157166615523176e-05 -2.7508246513045305e-03 -2.0108350604775218e-05  3.7019323294524478e-05 -2.8162444309493824e-03 -2.0157608645166819e-05  3.7872032780221455e-05 -2.8819355300159586e-03 -2.0222846858672774e-05  3.8707740528945335e-05 -2.9479586212653114e-03 -2.0295460190360937e-05  3.9575762290525454e-05 -3.0141561987803633e-03 -2.0340432179049321e-05  4.0383886945416549e-05 -3.0806170036399437e-03 -2.0423548072715275e-05  4.1270469658878137e-05 -3.1470525156754026e-03 -2.0458557011747236e-05  4.2132301946995377e-05 -3.2137096594192240e-03 -2.0483507145199801e-05  4.2996089774224221e-05 -3.2803985170970309e-03 -2.0525326383952489e-05  4.3846677959493720e-05 -3.3473439360572300e-03 -2.0575781640774219e-05  4.4707487291515357e-05 -3.4143244813939293e-03 -2.0612571991256919e-05  4.5583658190547726e-05 -3.4814316073777684e-03 -2.0621043410538169e-05  4.6448132540389403e-05 -3.5485802630219549e-03 -2.0631035363996897e-05  4.7316928746860768e-05 -3.6158640821992404e-03 -2.0653497498343059e-05  4.8186966246435154e-05 -3.6832119135344261e-03 -2.0669222839765705e-05  4.9063760381191003e-05 -3.7505664839697344e-03 -2.0681420735542628e-05  4.9937095032326402e-05 -3.8179796246451403e-03 -2.0699440891570532e-05  5.0814253961510714e-05 -3.8854063605323046e-03 -2.0715033796687173e-05  5.1703835104910811e-05 -3.9528863691780571e-03 -2.0711202960167761e-05  5.2590554494275368e-05 -4.0203881617927040e-03 -2.0714424633423535e-05  5.3463893823167749e-05 -4.0879420394750697e-03 -2.0716203009202212e-05  5.4340375567276217e-05 -4.1555148591443450e-03 -2.0722735442925956e-05  5.5223294964080365e-05 -4.2230779208057073e-03 -2.0722590253777881e-05  5.6111078795447020e-05 -4.2906429618523902e-03 -2.0720236797030892e-05  5.6989565385187716e-05 -4.3582356810072135e-03 -2.0722926987127425e-05  5.7873078817384741e-05 -4.4258016351431785e-03 -2.0715552809333907e-05  5.8762058565978291e-05 -4.4933417686229072e-03 -2.0715445159927926e-05  5.9649124731764099e-05 -4.5608767666351965e-03 -2.0712968021344043e-05  6.0535217005250712e-05 -4.6284118505181557e-03 -2.0707924584343979e-05  6.1423079353223345e-05 -4.6959285019524651e-03 -2.0704960048926811e-05  6.2307151652140808e-05 -4.7634395432748292e-03 -2.0698904608115450e-05  6.3192843309541028e-05 -4.8309514120774095e-03 -2.0696917676429614e-05  6.4081170038906971e-05 -4.8984397974283942e-03 -2.0698233213116872e-05  6.4434142056951882e-05 -4.9450432341075195e-03 -3.8045964755632193e-05  6.4228085036348686e-05 -4.9457037818295205e-03 -5.9023760906443350e-05  6.4111280202752924e-05 -4.9463844925326369e-03 -7.1486284355173251e-05  6.4025273433115435e-05 -4.9470678408662745e-03 -8.0997958497316602e-05  6.3961118882925944e-05 -4.9477509930180644e-03 -8.8534562575092864e-05  6.3913151816311512e-05 -4.9484325021221928e-03 -9.4727310458250270e-05  6.3875144320731534e-05 -4.9491108395008599e-03 -1.0000449771256271e-04  6.3850776736420944e-05 -4.9497852333222165e-03 -1.0413798962549711e-04  6.3834435087116277e-05 -4.9504564892101895e-03 -1.0743922813310728e-04  6.3828057744462884e-05 -4.9511236996718274e-03 -1.1001681396081091e-04  6.3828540277956203e-05 -4.9517860506861295e-03 -1.1192416380857455e-04  6.3834054080021168e-05 -4.9524447689764496e-03 -1.1332822069660198e-04  6.3845708524156103e-05 -4.9530990396596157e-03 -1.1411872893