<?xml version="1.0"?>
<VTKFile type="UnstructuredGrid"  version="0.1"  >
<UnstructuredGrid>
<Piece  NumberOfPoints="10958" NumberOfCells="41820">
<Points>
<DataArray  type="Float64"  NumberOfComponents="3"  format="ascii">1 0.04955 0  3.483770450905253e-06 0.04864772283650545 0  3.483770450905253e-06 0.04864772283650545 2.95  1 0.04955 2.95  0.9705745651584323 0.0546328692740541 0  0.9410403409854562 0.05904933268918263 0  0.9114506936029688 0.06307764259166145 0  0.8818365365778597 0.06692205633990718 0  0.852195425756178 0.07055529100758898 0  0.8225213484314672 0.07390813590379837 0  0.7928382076274137 0.07717791230068967 0  0.7631311412584285 0.08022519712851128 0  0.7333970986343074 0.08299595685799818 0  0.7036468593402103 0.08558339900696151 0  0.6738808305098906 0.08798485813956464 0  0.6440919092681797 0.09008334865923617 0  0.6142870835549664 0.09194561288677774 0  0.5844675933514397 0.09355367701932085 0  0.5546335832429207 0.09486496269114339 0  0.5247876530181904 0.095868659884793 0  0.4949363523436856 0.09668736484019783 0  0.4650802095563029 0.09731740696399105 0  0.4352195800941197 0.09768943189876603 0  0.405357042743103 0.09780828360274334 0  0.3754942534896675 0.09784351677757946 0  0.3456322298379585 0.09760772238205492 0  0.3157719755355017 0.09723970101506153 0  0.2859142869264596 0.09668561931752166 0  0.2560638915081948 0.09582390318294828 0  0.2262236143831659 0.09466390431188013 0  0.1964020995566796 0.09309886371899376 0  0.1665963941161298 0.09125714074218327 0  0.1368197180220126 0.08899319787719009 0  0.1070946678970156 0.08612945256268216 0  0.07746305623222323 0.08244010579101241 0  0.04805012948181673 0.07731042839253653 0  0.01932358256457366 0.06928107812002522 0  3.483770450905253e-06 0.04864772283650545 0.02979797979797999  3.483770450905253e-06 0.04864772283650545 0.05959595959595966  3.483770450905253e-06 0.04864772283650545 0.08939393939393965  3.483770450905253e-06 0.04864772283650545 0.1191919191919193  3.483770450905253e-06 0.04864772283650545 0.1489898989898993  3.483770450905253e-06 0.04864772283650545 0.178787878787879  3.483770450905253e-06 0.04864772283650545 0.2085858585858589  3.483770450905253e-06 0.04864772283650545 0.2383838383838386  3.483770450905253e-06 0.04864772283650545 0.2681818181818186  3.483770450905253e-06 0.04864772283650545 0.2979797979797986  3.483770450905253e-06 0.04864772283650545 0.3277777777777782  3.483770450905253e-06 0.04864772283650545 0.3575757575757582  3.483770450905253e-06 0.04864772283650545 0.3873737373737379  3.483770450905253e-06 0.04864772283650545 0.4171717171717179  3.483770450905253e-06 0.04864772283650545 0.4469696969696979  3.483770450905253e-06 0.04864772283650545 0.4767676767676775  3.483770450905253e-06 0.04864772283650545 0.5065656565656572  3.483770450905253e-06 0.04864772283650545 0.5363636363636372  3.483770450905253e-06 0.04864772283650545 0.5661616161616169  3.483770450905254e-06 0.04864772283650545 0.5959595959595969  3.483770450905253e-06 0.04864772283650545 0.6257575757575765  3.483770450905254e-06 0.04864772283650545 0.6555555555555564  3.483770450905253e-06 0.04864772283650545 0.6853535353535362  3.483770450905253e-06 0.04864772283650545 0.7151515151515158  3.483770450905253e-06 0.04864772283650545 0.7449494949494958  3.483770450905253e-06 0.04864772283650545 0.7747474747474755  3.483770450905253e-06 0.04864772283650545 0.8045454545454552  3.483770450905253e-06 0.04864772283650545 0.8343434343434351  3.483770450905253e-06 0.04864772283650545 0.8641414141414151  3.483770450905253e-06 0.04864772283650545 0.8939393939393945  3.483770450905254e-06 0.04864772283650545 0.9237373737373745  3.483770450905253e-06 0.04864772283650545 0.9535353535353545  3.483770450905254e-06 0.04864772283650545 0.9833333333333341  3.483770450905253e-06 0.04864772283650545 1.013131313131314  3.483770450905254e-06 0.04864772283650545 1.042929292929294  3.483770450905253e-06 0.04864772283650545 1.072727272727274  3.483770450905254e-06 0.04864772283650545 1.102525252525254  3.483770450905253e-06 0.04864772283650545 1.132323232323234  3.483770450905254e-06 0.04864772283650545 1.162121212121214  3.483770450905253e-06 0.04864772283650545 1.191919191919194  3.483770450905254e-06 0.04864772283650545 1.221717171717174  3.483770450905253e-06 0.04864772283650545 1.251515151515153  3.483770450905254e-06 0.04864772283650545 1.281313131313133  3.483770450905253e-06 0.04864772283650545 1.311111111111113  3.483770450905253e-06 0.04864772283650545 1.340909090909093  3.483770450905253e-06 0.04864772283650545 1.370707070707073  3.483770450905253e-06 0.04864772283650545 1.400505050505053  3.483770450905253e-06 0.04864772283650545 1.430303030303033  3.483770450905253e-06 0.04864772283650545 1.460101010101013  3.483770450905253e-06 0.04864772283650545 1.489898989898993  3.483770450905253e-06 0.04864772283650545 1.519696969696973  3.483770450905253e-06 0.04864772283650545 1.549494949494953  3.483770450905253e-06 0.04864772283650545 1.579292929292933  3.483770450905253e-06 0.04864772283650545 1.609090909090913  3.483770450905253e-06 0.04864772283650545 1.638888888888893  3.483770450905254e-06 0.04864772283650545 1.668686868686872  3.483770450905253e-06 0.04864772283650545 1.698484848484852  3.483770450905254e-06 0.04864772283650545 1.728282828282832  3.483770450905253e-06 0.04864772283650545 1.758080808080812  3.483770450905254e-06 0.04864772283650545 1.787878787878792  3.483770450905253e-06 0.04864772283650545 1.817676767676772  3.483770450905254e-06 0.04864772283650545 1.847474747474752  3.483770450905253e-06 0.04864772283650545 1.877272727272732  3.483770450905254e-06 0.04864772283650545 1.907070707070712  3.483770450905253e-06 0.04864772283650545 1.936868686868691  3.483770450905253e-06 0.04864772283650545 1.966666666666671  3.483770450905253e-06 0.04864772283650545 1.996464646464651  3.483770450905253e-06 0.04864772283650545 2.02626262626263  3.483770450905253e-06 0.04864772283650545 2.056060606060611  3.483770450905253e-06 0.04864772283650545 2.08585858585859  3.483770450905254e-06 0.04864772283650545 2.11565656565657  3.483770450905253e-06 0.04864772283650545 2.14545454545455  3.483770450905253e-06 0.04864772283650545 2.175252525252529  3.483770450905253e-06 0.04864772283650545 2.205050505050508  3.483770450905253e-06 0.04864772283650545 2.234848484848488  3.483770450905253e-06 0.04864772283650545 2.264646464646468  3.483770450905253e-06 0.04864772283650545 2.294444444444448  3.483770450905253e-06 0.04864772283650545 2.324242424242427  3.483770450905253e-06 0.04864772283650545 2.354040404040407  3.483770450905253e-06 0.04864772283650545 2.383838383838387  3.483770450905254e-06 0.04864772283650545 2.413636363636366  3.483770450905253e-06 0.04864772283650545 2.443434343434346  3.483770450905253e-06 0.04864772283650545 2.473232323232326  3.483770450905253e-06 0.04864772283650545 2.503030303030305  3.483770450905253e-06 0.04864772283650545 2.532828282828285  3.483770450905253e-06 0.04864772283650545 2.562626262626264  3.483770450905253e-06 0.04864772283650545 2.592424242424244  3.483770450905254e-06 0.04864772283650545 2.622222222222224  3.483770450905253e-06 0.04864772283650545 2.652020202020203  3.483770450905253e-06 0.04864772283650545 2.681818181818183  3.483770450905253e-06 0.04864772283650545 2.711616161616163  3.483770450905253e-06 0.04864772283650545 2.741414141414142  3.483770450905254e-06 0.04864772283650545 2.771212121212122  3.483770450905253e-06 0.04864772283650545 2.801010101010102  3.483770450905253e-06 0.04864772283650545 2.830808080808081  3.483770450905253e-06 0.04864772283650545 2.860606060606061  3.483770450905253e-06 0.04864772283650545 2.890404040404041  3.483770450905253e-06 0.04864772283650545 2.92020202020202  0.9705745651584323 0.0546328692740541 2.95  0.9410403409854562 0.05904933268918263 2.95  0.9114506936029688 0.06307764259166145 2.95  0.8818365365778597 0.06692205633990718 2.95  0.852195425756178 0.07055529100758898 2.95  0.8225213484314672 0.07390813590379837 2.95  0.7928382076274137 0.07717791230068967 2.95  0.7631311412584285 0.08022519712851128 2.95  0.7333970986343074 0.08299595685799818 2.95  0.7036468593402103 0.08558339900696151 2.95  0.6738808305098906 0.08798485813956464 2.95  0.6440919092681797 0.09008334865923617 2.95  0.6142870835549664 0.09194561288677774 2.95  0.5844675933514397 0.09355367701932085 2.95  0.5546335832429207 0.09486496269114339 2.95  0.5247876530181904 0.095868659884793 2.95  0.4949363523436856 0.09668736484019783 2.95  0.4650802095563029 0.09731740696399105 2.95  0.4352195800941197 0.09768943189876603 2.95  0.405357042743103 0.09780828360274334 2.95  0.3754942534896675 0.09784351677757946 2.95  0.3456322298379585 0.09760772238205492 2.95  0.3157719755355017 0.09723970101506153 2.95  0.2859142869264596 0.09668561931752166 2.95  0.2560638915081948 0.09582390318294828 2.95  0.2262236143831659 0.09466390431188013 2.95  0.1964020995566796 0.09309886371899376 2.95  0.1665963941161298 0.09125714074218327 2.95  0.1368197180220126 0.08899319787719009 2.95  0.1070946678970156 0.08612945256268216 2.95  0.07746305623222323 0.08244010579101241 2.95  0.04805012948181673 0.07731042839253653 2.95  0.01932358256457366 0.06928107812002522 2.95  1 0.04955 0.02979797979797999  1 0.04955 0.05959595959595966  1 0.04955 0.08939393939393965  1 0.04955 0.1191919191919193  1 0.04955 0.1489898989898993  1 0.04955 0.178787878787879  1 0.04955 0.2085858585858589  1 0.04955 0.2383838383838386  1 0.04955 0.2681818181818186  1 0.04955 0.2979797979797986  1 0.04955 0.3277777777777782  1 0.04955 0.3575757575757582  1 0.04955 0.3873737373737379  1 0.04955 0.4171717171717179  1 0.04955 0.4469696969696979  1 0.04955 0.4767676767676775  1 0.04955 0.5065656565656572  1 0.04955 0.5363636363636372  1 0.04955 0.5661616161616169  1 0.04955 0.5959595959595969  1 0.04955 0.6257575757575765  1 0.04955 0.6555555555555564  1 0.04955 0.6853535353535362  1 0.04955 0.7151515151515158  1 0.04955 0.7449494949494958  1 0.04955 0.7747474747474755 
[...]
<PointData  Vectors="Displacement"> 
<DataArray  type="Float64"  Name="Displacement"  NumberOfComponents="3" format="ascii">0.0000000000000000e+00 0.0000000000000000e+00 0.0000000000000000e+00  0.0000000000000000e+00 0.0000000000000000e+00 0.0000000000000000e+00  1.1021824913321909e-04 -8.3454845854652199e-03 1.2085111780827719e-05  1.1036773530898258e-04 -8.3795123323926954e-03 -3.5530682951742624e-05  0.0000000000000000e+00 0.0000000000000000e+00 0.0000000000000000e+00  0.0000000000000000e+00 0.0000000000000000e+00 0.0000000000000000e+00  0.0000000000000000e+00 0.0000000000000000e+00 0.0000000000000000e+00  0.0000000000000000e+00 0.0000000000000000e+00 0.0000000000000000e+00  0.0000000000000000e+00 0.0000000000000000e+00 0.0000000000000000e+00  0.0000000000000000e+00 0.0000000000000000e+00 0.0000000000000000e+00  0.0000000000000000e+00 0.0000000000000000e+00 0.0000000000000000e+00  0.0000000000000000e+00 0.0000000000000000e+00 0.0000000000000000e+00  0.0000000000000000e+00 0.0000000000000000e+00 0.0000000000000000e+00  0.0000000000000000e+00 0.0000000000000000e+00 0.0000000000000000e+00  0.0000000000000000e+00 0.0000000000000000e+00 0.0000000000000000e+00  0.0000000000000000e+00 0.0000000000000000e+00 0.0000000000000000e+00  0.0000000000000000e+00 0.0000000000000000e+00 0.0000000000000000e+00  0.0000000000000000e+00 0.0000000000000000e+00 0.0000000000000000e+00  0.0000000000000000e+00 0.0000000000000000e+00 0.0000000000000000e+00  0.0000000000000000e+00 0.0000000000000000e+00 0.0000000000000000e+00  0.0000000000000000e+00 0.0000000000000000e+00 0.0000000000000000e+00  0.0000000000000000e+00 0.0000000000000000e+00 0.0000000000000000e+00  0.0000000000000000e+00 0.0000000000000000e+00 0.0000000000000000e+00  0.0000000000000000e+00 0.0000000000000000e+00 0.0000000000000000e+00  0.0000000000000000e+00 0.0000000000000000e+00 0.0000000000000000e+00  0.0000000000000000e+00 0.0000000000000000e+00 0.0000000000000000e+00  0.0000000000000000e+00 0.0000000000000000e+00 0.0000000000000000e+00  0.0000000000000000e+00 0.0000000000000000e+00 0.0000000000000000e+00  0.0000000000000000e+00 0.0000000000000000e+00 0.0000000000000000e+00  0.0000000000000000e+00 0.0000000000000000e+00 0.0000000000000000e+00  0.0000000000000000e+00 0.0000000000000000e+00 0.0000000000000000e+00  0.0000000000000000e+00 0.0000000000000000e+00 0.0000000000000000e+00  0.0000000000000000e+00 0.0000000000000000e+00 0.0000000000000000e+00  0.0000000000000000e+00 0.0000000000000000e+00 0.0000000000000000e+00  0.0000000000000000e+00 0.0000000000000000e+00 0.0000000000000000e+00  0.0000000000000000e+00 0.0000000000000000e+00 0.0000000000000000e+00  0.0000000000000000e+00 0.0000000000000000e+00 0.0000000000000000e+00  -6.8207206686774608e-08 1.5857048524513861e-06 2.0087640091511536e-07  1.8302815406927291e-07 9.0000666238114237e-07 8.3040701700797181e-07  4.6538782327221162e-07 -2.1627905574240308e-06 1.5533805364711468e-06  7.7452041762120381e-07 -8.2808518291770014e-06 1.7747409566977434e-06  7.4508641481285583e-07 -1.7407426055445943e-05 2.0520588530528870e-06  1.1405064703301812e-06 -2.9832978642739927e-05 2.2518638281370517e-06  1.3302779724357251e-06 -4.5840213901326557e-05 2.3059914638532714e-06  1.5090971408778396e-06 -6.4476237227383690e-05 2.9697464462657183e-06  1.9193727884590391e-06 -8.6219734067787007e-05 3.2328661999556178e-06  2.1158744859361125e-06 -1.1133748276821995e-04 3.4449276723353025e-06  2.6901105585115955e-06 -1.3916381672739875e-04 3.7683390112428428e-06  3.2983552590774125e-06 -1.6987744481915422e-04 3.8598644671373592e-06  3.5079098798937153e-06 -2.0382664219016617e-04 4.1743847920911434e-06  4.0718895020178099e-06 -2.4017235471893720e-04 3.7419476557750291e-06  4.3510476150754426e-06 -2.7924156694192538e-04 4.4298626183621543e-06  5.1051784865167349e-06 -3.2123340711263563e-04 4.3546968745349711e-06  5.6355376525313576e-06 -3.6503458499164896e-04 4.6907331813731136e-06  6.0227998505985680e-06 -4.1257106866905572e-04 5.0159021268190834e-06  6.9226022498978232e-06 -4.6232747144653676e-04 5.3743892239633908e-06  7.5157592563464531e-06 -5.1431264675076932e-04 4.9909992771274107e-06  8.1863873292060748e-06 -5.6803632369895388e-04 5.7525973769423466e-06  8.8347310034794014e-06 -6.2395009473993591e-04 6.4594164718572580e-06  1.0055820161308491e-05 -6.8222464935361075e-04 6.5109980682148535e-06  1.0535066321381168e-05 -7.4236879343086710e-04 6.6565845656070369e-06  1.1655211095283360e-05 -8.0440705298716016e-04 6.8160698917170490e-06  1.2623577343624522e-05 -8.6841475472639420e-04 6.4562460479465017e-06  1.3146768056756249e-05 -9.3505049708766746e-04 6.4061039403386292e-06  1.3846083714930879e-05 -1.0033329386810216e-03 6.9820647658134562e-06  1.4787859377212592e-05 -1.0739814748220687e-03 7.3562544306824564e-06  1.5869313447089346e-05 -1.1462088935710235e-03 7.6470382012913918e-06  1.6759436531893790e-05 -1.2199292933862728e-03 7.8905970106528679e-06  1.7800741268500458e-05 -1.2953396552023600e-03 8.1110989388144005e-06  1.8914537514269485e-05 -1.3726306665858687e-03 8.1810625671452329e-06  1.9978188184070290e-05 -1.4516883128229258e-03 7.9502720651971890e-06  2.0791809122621830e-05 -1.5317759739207903e-03 8.0930277096252644e-06  2.1744288666339252e-05 -1.6135548278653812e-03 8.6449649710577959e-06  2.3089872131383803e-05 -1.6969477369331530e-03 8.7810281669952910e-06  2.4221320267083748e-05 -1.7818254954509276e-03 8.7950113756129672e-06  2.5342223186971514e-05 -1.8681092917380373e-03 8.6167542439865642e-06  2.6284923392921155e-05 -1.9552691475030731e-03 8.9525656959493683e-06  2.7460210515501869e-05 -2.0438581121761503e-03 9.2115599388497479e-06  2.8751251405089326e-05 -2.1342248025177312e-03 9.4806583749964772e-06  2.9777404559887180e-05 -2.2257921241885911e-03 9.6760115197013799e-06  3.1182325600656667e-05 -2.3185350105147371e-03 9.7757050042236423e-06  3.2442099753719383e-05 -2.4125227206390023e-03 9.8088864663649603e-06  3.3623368984118860e-05 -2.5076320855085925e-03 9.8300035331093544e-06  3.4914236741893489e-05 -2.6036211093586037e-03 9.6362500220811844e-06  3.6122342080571359e-05 -2.7006970811526100e-03 9.8656724976326132e-06  3.7316758923673064e-05 -2.7986262302060181e-03 9.9766764224319596e-06  3.8678486203019168e-05 -2.8976455588526602e-03 1.0146902835649886e-05  3.9941948591319043e-05 -2.9978045593146868e-03 1.0477446939426813e-05  4.1293436921068016e-05 -3.0987245212632129e-03 1.0616521697218198e-05  4.2747171247120660e-05 -3.2006104899612122e-03 1.0426364675423126e-05  4.3930354004696204e-05 -3.3031298582686503e-03 1.0520549074775151e-05  4.5393862093353597e-05 -3.4065437256786991e-03 1.0541995547377361e-05  4.6650208849264769e-05 -3.5107270495651332e-03 1.0639656788735036e-05  4.8005763833820879e-05 -3.6154706622519061e-03 1.0775792049843114e-05  4.9338785533346237e-05 -3.7209674952251304e-03 1.1071907863275188e-05  5.0842695893760414e-05 -3.8271014095577205e-03 1.1149895902422620e-05  5.2282718190988517e-05 -3.9337993601224882e-03 1.1010652899486211e-05  5.3568315078365070e-05 -4.0411255931845748e-03 1.1070320988748413e-05  5.4928927161484401e-05 -4.1491404367438520e-03 1.1360027243186131e-05  5.6500894019242031e-05 -4.2577537283834850e-03 1.1361264006438281e-05  5.7960417735717871e-05 -4.3669133215152025e-03 1.1284804207984820e-05  5.9327976989218452e-05 -4.4765525713208777e-03 1.1304031157998831e-05  6.0749345189863324e-05 -4.5865855856661664e-03 1.1502111894568080e-05  6.2165557086035707e-05 -4.6970872946913511e-03 1.1613802537917507e-05  6.3705613170432479e-05 -4.8078975920772243e-03 1.1632991355572878e-05  6.5108836137896822e-05 -4.9191848900947818e-03 1.1686010234722957e-05  6.6646945321500873e-05 -5.0308243120339704e-03 1.1707899382260869e-05  6.8138014190187522e-05 -5.1428279617192450e-03 1.1631087173549972e-05  6.9559959359680702e-05 -5.2552305637501139e-03 1.1655790053090376e-05  7.1018063778717594e-05 -5.3678645587486905e-03 1.1800666931186837e-05  7.2479835735104664e-05 -5.4807623309030360e-03 1.1841241517636650e-05  7.4002449250062187e-05 -5.5939746845979996e-03 1.1884554207262156e-05  7.5492586654538413e-05 -5.7073764186898173e-03 1.1880550937581954e-05  7.6981622604547386e-05 -5.8209862613253054e-03 1.1901760893133245e-05  7.8503323461805955e-05 -5.9348134591488523e-03 1.1879444309159262e-05  7.9994618485573120e-05 -6.0488199056923020e-03 1.1904165286049099e-05  8.1477686161144307e-05 -6.1630001194754348e-03 1.1948098091214270e-05  8.2963389948207728e-05 -6.2772830728951012e-03 1.1998440728294625e-05  8.4496812791629708e-05 -6.3917270314791932e-03 1.2018400588994360e-05  8.5988424974344876e-05 -6.5062608162156062e-03 1.2022687309229801e-05  8.7508891468024742e-05 -6.6208987784116251e-03 1.2031528923827698e-05  8.9023201768727327e-05 -6.7356176543788334e-03 1.2029637260276572e-05  9.0542233320303170e-05 -6.8504203891979502e-03 1.2025810771601641e-05  9.2045799734112081e-05 -6.9652815477250106e-03 1.2048012981733268e-05  9.3548421422494089e-05 -7.0801992204687645e-03 1.2064888736537954e-05  9.5071259943775094e-05 -7.1951616619767254e-03 1.2068282049449204e-05  9.6591643984483589e-05 -7.3101481960662421e-03 1.2065854406627829e-05  9.8106910449602996e-05 -7.4251626163554900e-03 1.2072693277438750e-05  9.9614408156666382e-05 -7.5401912936231968e-03 1.2082292726460459e-05  1.0112884991989053e-04 -7.6552341785786340e-03 1.2084866608133807e-05  1.0264667560240524e-04 -7.7702843115532256e-03 1.2085567721898611e-05  1.0416304755375500e-04 -7.8853312126131864e-03 1.2085868001266468e-05  1.0567590075088593e-04 -8.0003764805039387e-03 1.2084552444638580e-05  1.0719233007737315e-04 -8.1154183173483101e-03 1.2084888859776945e-05  1.0870554278597218e-04 -8.2304545850572317e-03 1.2084965072001302e-05  1.1051632315768521e-04 -8.3786450473462924e-03 -1.4371419664755504e-05  1.1065023194222231e-04 -8.3777524274507593e-03 4.2132718392986062e-06  1.1077821320908600e-04 -8.3768294423854049e-03 2.1298753160564428e-05  1.1090083231619589e-04 -8.3758854879429773e-03 3.7674002298140802e-05  1.1101527692803628e-04 -8.3749361123046807e-03 5.3231467712986388e-05  1.1111972636895044e-04 -8.3739906308419789e-03 6.7708513326845775e-05  1.1122167757559424e-04 -8.3730428919832449e-03 8.1861232515703842e-05  1.1131868067571679e-04 -8.3720945027491306e-03 9.5153146011574307e-05  1.1140526375658369e-04 -8.3711440386674829e-03 1.0737803176453836e-04  1.1149027714268650e-04 -8.3701919147599890e-03 1.1888683416014501e-04  1.1156679877393607e-04 -8.3692272585351758e-03 1.2967967914280149e-04  1.1163747376991370e-04 -8.3682559609225739e-03 1.3929635742075978e-04  1.1169932370926006e-04 -8.3672750541399117e-03 1.4800533144230317e-04  1.1175622653652942e-04 -8.3662966195430094e-03 1.5572874585963479e-04  1.1180237010373485e-04 -8.3653055845102388e-03 1.6231000492784444e-04  1.1184417046914807e-04 -8.3643103844775208e-03 1.6769842315483594e-04  1.1187778121634159e-04 -8.3633049601002634e-03 1.7237294968557924e-04  1.1190698392577734e-04 -8.3622907863430494e-03 1.7631975518713896e-04  1.1192997966769353e-04 -8.3612663744205909e-03 1.7926813234977508e-04  1.1194409647065279e-04 -8.3602350867633506e-03 1.8124053696835240e-04  1.1195449653277547e-04 -8.3591982903683231e-03 1.8289279873230397e-04  1.1195645658543535e-04 -8.3581519490199280e-03 1.8349928842696154e-04  1.1195499253864343e-04 -8.3570956833864188e-03 1.8359407954941846e-04  1.1194874064052523e-04 -8.3560305780458147e-03 1.8297198128676976e-04  1.1192920721608463e-04 -8.3549593334210932e-03 1.8116421044262837e-04  1.1189774877700134e-04 -8.3538796664229583e-03 1.7820455474572110e-04  1.1185127917865335e-04 -8.3527925819539498e-03 1.7368205155606726e-04  1.1179406241756058e-04 -8.3516984377166020e-03 1.6808945238840119e-04  1.1171785539858279e-04 -8.3505978093043297e-03 1.6086739432474612e-04  1.1161676771266744e-04 -8.3494926022409204e-03 1.5132612538119126e-04  1.1148235512497938e-04 -8.3483892191821545e-03 1.3859262021586011e-04  1.1129379740322579e-04 -8.3472876321767486e-03 1.2028929257261200e-04  1.1099341857681280e-04 -8.3462102136976357e-03 9.0754034560519410e-05  -3.7527969360592307e-07 9.5992624249920736e-07 -3.4901288424327225e-08  -6.8361769173754718e-07 4.9421198443706924e-07 -3.0270733462305108e-07  -7.9421098632174239e-07 -7.8161818282567390e-07 -1.0180917221928824e-06  -5.8640380683443455e-07 -6.4474318742829951e-06 -2.2573170623065000e-06  2.9891069468596684e-08 -1.2895626998982784e-05 -3.3968400237887256e-06  2.7807896393753668e-07 -2.0273213555646417e-05 -3.7568527505893650e-06  5.1626238722949264e-07 -3.5045486151945849e-05 -4.2858059850142697e-06  8.5747843505801441e-07 -5.0681899705727012e-05 -4.8860898372336057e-06  6.5456799404194295e-07 -6.8927815394913508e-05 -5.3971677216401823e-06  1.0745161806251688e-06 -9.0058807448553248e-05 -6.4809767278281867e-06  2.0833415797592644e-06 -1.1495315088848298e-04 -7.9219516130744993e-06  3.0687723740927494e-06 -1.4102096173459702e-04 -9.3952375758718297e-06  4.2062373597538061e-06 -1.6843555402116177e-04 -1.0799494223555697e-05  4.0981209370907890e-06 -2.0419080783936144e-04 -1.0982362384929581e-05  4.8476917557490973e-06 -2.4233371468701791e-04 -1.1630219658061600e-05  5.2575452542755213e-06 -2.8080958883688016e-04 -1.2635932012587587e-05  5.8783725168760076e-06 -3.2366454407490295e-04 -1.3542697987198157e-05  6.4174768051332590e-06 -3.7043191596772675e-04 -1.5012088080080530e-05  6.9620380232682799e-06 -4.2065101997124945e-04 -1.6615562575171821e-05  7.8521694220408585e-06 -4.7420517713471434e-04 -1.7005300854982800e-05  8.1945172952181354e-06 -5.2994546993898820e-04 -1.7350755571968315e-05  8.8872789472092201e-06 -5.8655137049032509e-04 -1.7989865373621591e-05  9.7270626596275563e-06 -6.4476940951309044e-04 -1.8445724456220359e-05  1.0422667069612268e-05 -7.0550431051981301e-04 -1.9191151245744095e-05  1.1389481787592881e-05 -7.6826322134105653e-04 -2.0058440726866796e-05  1.2076187049080414e-05 -8.3316866290584005e-04 -2.0130559638595443e-05  1.2961803109412784e-05 -9.0080574510681909e-04 -2.1504421327357913e-05  1.3702758642366592e-05 -9.7165875959379208e-04 -2.2116303487448110e-05  1.4623072368430930e-05 -1.0434886524503535e-03 -2.2789548565868371e-05  1.5913143330341504e-05 -1.1173244727418455e-03 -2.3597880374739812e-05  1.6977324945947927e-05 -1.1916167585359304e-03 -2.3994113946411135e-05  1.7909798304785599e-05 -1.2674716925278483e-03 -2.4081932145384093e-05  1.9007385589530814e-05 -1.3452709985871784e-03 -2.4777779655282951e-05  1.9946182141602123e-05 -1.4251074913822848e-03 -2.5393159116559835e-05  2.0866840136325597e-05 -1.5071155800741789e-03 -2.5406843088612043e-05  2.2039392363282103e-05 -1.5897572255207659e-03 -2.6217637911743262e-05  2.3294945325074294e-05 -1.6728321164167404e-03 -2.6306588111748271e-05  2.4529514743991719e-05 -1.7589288196410359e-03 -2.6785222078298786e-05  2.5555766201491737e-05 -1.8464227560776199e-03 -2.7438232103850080e-05  2.6790726489451678e-05 -1.9350031618072224e-03 -2.7943933154952760e-05  2.7876613152316374e-05 -2.0265126349233559e-03 -2.8526300076705164e-05  2.9030195757712644e-05 -2.1188439940020044e-03 -2.8833845382017465e-05  3.0241144249289933e-05 -2.2121680463611177e-03 -2.9289607009349896e-05  3.1462859301685910e-05 -2.3059426470322421e-03 -2.9412042656146643e-05  3.2707455483958314e-05 -2.4015162714287092e-03 -2.9552150005610314e-05  3.3962784088723715e-05 -2.4976634443282433e-03 -2.9919781852935926e-05  3.5078133563264410e-05 -2.5952801920237478e-03 -3.0170988045844259e-05  3.6357163729507211e-05 -2.6932861413916666e-03 -3.0382179494815988e-05  3.7536203489600354e-05 -2.7922165031006958e-03 -3.0834682914861071e-05  3.9010774015187665e-05 -2.8926647449012653e-03 -3.1154081125520554e-05  4.0304407090598975e-05 -2.9939390600294668e-03 -3.1399086923012613e-05  4.1543600231511065e-05 -3.0960649616727461e-03 -3.1842320642708888e-05  4.2865469664347260e-05 -3.1991730378753301e-03 -3.2154454847400593e-05  4.4220775080930441e-05 -3.3031455966836447e-03 -3.2190049213178388e-05  4.5514837033068547e-05 -3.4077955856616636e-03 -3.2507609266228288e-05  4.6888818848667084e-05 -3.5133347171023089e-03 -3.2756578540891493e-05  4.8355146346258646e-05 -3.6190737947353283e-03 -3.2941323807271796e-05  4.9672361077697352e-05 -3.7262886897716442e-03 -3.3144244206058973e-05  5.0970540026833013e-05 -3.8344685736112580e-03 -3.3319603336132747e-05  5.2298744895594391e-05 -3.9430600446972433e-03 -3.3592368380043381e-05  5.3682900410917157e-05 -4.0519496537171403e-03 -3.3756276899491820e-05  5.5128723332978087e-05 -4.1613278182614285e-03 -3.3902211515983312e-05  5.6618972014395709e-05 -4.2707351112447958e-03 -3.4051066925051760e-05  5.8065688766480144e-05 -4.3805867454951609e-03 -3.4107866251479413e-05  5.9532525089002327e-05 -4.4907039077079301e-03 -3.4277763016573397e-05  6.0946193889296940e-05 -4.6018227468853446e-03 -3.4364066918577543e-05  6.2422348129799164e-05 -4.7130363428043798e-03 -3.4458729470695845e-05  6.3881522071955173e-05 -4.8247541589086186e-03 -3.4583549971469140e-05  6.5308895588835628e-05 -4.9370943215341122e-03 -3.4721772487983603e-05  6.6797523070879231e-05 -5.0497621818077799e-03 -3.4810222842930382e-05  6.8174003391257071e-05 -5.1629272005329265e-03 -3.4968520684456375e-05  6.9696110820212576e-05 -5.2760605509492966e-03 -3.5037457185215735e-05  7.1171033601338631e-05 -5.3896162754843097e-03 -3.5086196751940975e-05  7.2650935384521538e-05 -5.5032343266381905e-03 -3.5168349316787640e-05  7.4106852799605535e-05 -5.6173393615238185e-03 -3.5267796306823425e-05  7.5580985514076275e-05 -5.7315160004673144e-03 -3.5340239548809070e-05  7.7084683160094463e-05 -5.8459394919490055e-03 -3.5359286353275366e-05  7.8565504392966471e-05 -5.9604426917119029e-03 -3.5379919471434634e-05  8.0054198804959626e-05 -6.0752118267053531e-03 -3.5424585196323432e-05  8.1545065591763608e-05 -6.1901098492318047e-03 -3.5456392329950985e-05  8.3049437919030476e-05 -6.3050213818694623e-03 -3.5481938581580276e-05  8.4547188226667382e-05 -6.4200451192522514e-03 -3.5517710854282398e-05  8.6051864432995203e-05 -6.5350999153256460e-03 -3.5549216028316032e-05  8.7580814291891604e-05 -6.6502584231204875e-03 -3.5543601580717521e-05  8.9104544495528370e-05 -6.7654575972004886e-03 -3.5552068304931225e-05  9.0603083038050895e-05 -6.8807640410013752e-03 -3.5557313327763900e-05  9.2106435259605582e-05 -6.9961121936595247e-03 -3.5571114709015333e-05  9.3622313090153147e-05 -7.1114440015963782e-03 -3.5571594740180771e-05  9.5147536773136087e-05 -7.2267802995906946e-03 -3.5567793952090074e-05  9.6655029773455513e-05 -7.3421713571021020e-03 -3.5573902452638985e-05  9.8172035669520405e-05 -7.4575149192109219e-03 -3.5560977733683701e-05  9.9699415023792875e-05 -7.5728107864853067e-03 -3.5561191607017173e-05  1.0122329177069586e-04 -7.6880971000392517e-03 -3.5556837478011280e-05  1.0274535706217047e-04 -7.8033840480156652e-03 -3.5547595941075991e-05  1.0427072737296157e-04 -7.9186363681265168e-03 -3.5542157078786955e-05  1.0578891893791636e-04 -8.0338781974634826e-03 -3.5530756357041316e-05  1.0731014446316021e-04 -8.1491216045162917e-03 -3.5527033774273526e-05  1.0883635350801472e-04 -8.2643204585744878e-03 -3.5529561666455226e-05  1.0948013671538520e-04 -8.3462686773389649e-03 -6.4814457196435895e-05  1.0914704764667039e-04 -8.3473369479018320e-03 -1.0062444237770275e-04  1.0895878330620599e-04 -8.3484372844901157e-03 -1.2190179914049337e-04  1.0882045360584010e-04 -8.3495412404101643e-03 -1.3814293183535509e-04  1.0871791741618190e-04 -8.3506441421342340e-03 -1.5101358148699581e-04  1.0864224659142035e-04 -8.3517435586628122e-03 -1.6159035601577581e-04  1.0858283304713245e-04 -8.3528367242812138e-03 -1.7060457002323137e-04  1.0854602291760104e-04 -8.3539221860905368e-03 -1.7766725386732926e-04  1.0852202486030544e-04 -8.3550015682825156e-03 -1.8330971544622284e-04  1.0851487359240798e-04 -8.3560731971296428e-03 -1.8771719053099065e-04  1.0851880317411624e-04 -8.3571355433864052e-03 -1.9098090220670089e-04  1.0853082313101525e-04 -8.3581909740451047e-03 -1.9338632892771065e-04  1.0855272714074242e-04 -8.3592379568094254e-03 -1.9474461556