<?xml version="1.0"?>
<VTKFile type="UnstructuredGrid"  version="0.1"  >
<UnstructuredGrid>
<Piece  NumberOfPoints="10958" NumberOfCells="41820">
<Points>
<DataArray  type="Float64"  NumberOfComponents="3"  format="ascii">1 0.04955 0  3.483770450905253e-06 0.04864772283650545 0  3.483770450905253e-06 0.04864772283650545 2.95  1 0.04955 2.95  0.9705745651584323 0.0546328692740541 0  0.9410403409854562 0.05904933268918263 0  0.9114506936029688 0.06307764259166145 0  0.8818365365778597 0.06692205633990718 0  0.852195425756178 0.07055529100758898 0  0.8225213484314672 0.07390813590379837 0  0.7928382076274137 0.07717791230068967 0  0.7631311412584285 0.08022519712851128 0  0.7333970986343074 0.08299595685799818 0  0.7036468593402103 0.08558339900696151 0  0.6738808305098906 0.08798485813956464 0  0.6440919092681797 0.09008334865923617 0  0.6142870835549664 0.09194561288677774 0  0.5844675933514397 0.09355367701932085 0  0.5546335832429207 0.09486496269114339 0  0.5247876530181904 0.095868659884793 0  0.4949363523436856 0.09668736484019783 0  0.4650802095563029 0.09731740696399105 0  0.4352195800941197 0.09768943189876603 0  0.405357042743103 0.09780828360274334 0  0.3754942534896675 0.09784351677757946 0  0.3456322298379585 0.09760772238205492 0  0.3157719755355017 0.09723970101506153 0  0.2859142869264596 0.09668561931752166 0  0.2560638915081948 0.09582390318294828 0  0.2262236143831659 0.09466390431188013 0  0.1964020995566796 0.09309886371899376 0  0.1665963941161298 0.09125714074218327 0  0.1368197180220126 0.08899319787719009 0  0.1070946678970156 0.08612945256268216 0  0.07746305623222323 0.08244010579101241 0  0.04805012948181673 0.07731042839253653 0  0.01932358256457366 0.06928107812002522 0  3.483770450905253e-06 0.04864772283650545 0.02979797979797999  3.483770450905253e-06 0.04864772283650545 0.05959595959595966  3.483770450905253e-06 0.04864772283650545 0.08939393939393965  3.483770450905253e-06 0.04864772283650545 0.1191919191919193  3.483770450905253e-06 0.04864772283650545 0.1489898989898993  3.483770450905253e-06 0.04864772283650545 0.178787878787879  3.483770450905253e-06 0.04864772283650545 0.2085858585858589  3.483770450905253e-06 0.04864772283650545 0.2383838383838386  3.483770450905253e-06 0.04864772283650545 0.2681818181818186  3.483770450905253e-06 0.04864772283650545 0.2979797979797986  3.483770450905253e-06 0.04864772283650545 0.3277777777777782  3.483770450905253e-06 0.04864772283650545 0.3575757575757582  3.483770450905253e-06 0.04864772283650545 0.3873737373737379  3.483770450905253e-06 0.04864772283650545 0.4171717171717179  3.483770450905253e-06 0.04864772283650545 0.4469696969696979  3.483770450905253e-06 0.04864772283650545 0.4767676767676775  3.483770450905253e-06 0.04864772283650545 0.5065656565656572  3.483770450905253e-06 0.04864772283650545 0.5363636363636372  3.483770450905253e-06 0.04864772283650545 0.5661616161616169  3.483770450905254e-06 0.04864772283650545 0.5959595959595969  3.483770450905253e-06 0.04864772283650545 0.6257575757575765  3.483770450905254e-06 0.04864772283650545 0.6555555555555564  3.483770450905253e-06 0.04864772283650545 0.6853535353535362  3.483770450905253e-06 0.04864772283650545 0.7151515151515158  3.483770450905253e-06 0.04864772283650545 0.7449494949494958  3.483770450905253e-06 0.04864772283650545 0.7747474747474755  3.483770450905253e-06 0.04864772283650545 0.8045454545454552  3.483770450905253e-06 0.04864772283650545 0.8343434343434351  3.483770450905253e-06 0.04864772283650545 0.8641414141414151  3.483770450905253e-06 0.04864772283650545 0.8939393939393945  3.483770450905254e-06 0.04864772283650545 0.9237373737373745  3.483770450905253e-06 0.04864772283650545 0.9535353535353545  3.483770450905254e-06 0.04864772283650545 0.9833333333333341  3.483770450905253e-06 0.04864772283650545 1.013131313131314  3.483770450905254e-06 0.04864772283650545 1.042929292929294  3.483770450905253e-06 0.04864772283650545 1.072727272727274  3.483770450905254e-06 0.04864772283650545 1.102525252525254  3.483770450905253e-06 0.04864772283650545 1.132323232323234  3.483770450905254e-06 0.04864772283650545 1.162121212121214  3.483770450905253e-06 0.04864772283650545 1.191919191919194  3.483770450905254e-06 0.04864772283650545 1.221717171717174  3.483770450905253e-06 0.04864772283650545 1.251515151515153  3.483770450905254e-06 0.04864772283650545 1.281313131313133  3.483770450905253e-06 0.04864772283650545 1.311111111111113  3.483770450905253e-06 0.04864772283650545 1.340909090909093  3.483770450905253e-06 0.04864772283650545 1.370707070707073  3.483770450905253e-06 0.04864772283650545 1.400505050505053  3.483770450905253e-06 0.04864772283650545 1.430303030303033  3.483770450905253e-06 0.04864772283650545 1.460101010101013  3.483770450905253e-06 0.04864772283650545 1.489898989898993  3.483770450905253e-06 0.04864772283650545 1.519696969696973  3.483770450905253e-06 0.04864772283650545 1.549494949494953  3.483770450905253e-06 0.04864772283650545 1.579292929292933  3.483770450905253e-06 0.04864772283650545 1.609090909090913  3.483770450905253e-06 0.04864772283650545 1.638888888888893  3.483770450905254e-06 0.04864772283650545 1.668686868686872  3.483770450905253e-06 0.04864772283650545 1.698484848484852  3.483770450905254e-06 0.04864772283650545 1.728282828282832  3.483770450905253e-06 0.04864772283650545 1.758080808080812  3.483770450905254e-06 0.04864772283650545 1.787878787878792  3.483770450905253e-06 0.04864772283650545 1.817676767676772  3.483770450905254e-06 0.04864772283650545 1.847474747474752  3.483770450905253e-06 0.04864772283650545 1.877272727272732  3.483770450905254e-06 0.04864772283650545 1.907070707070712  3.483770450905253e-06 0.04864772283650545 1.936868686868691  3.483770450905253e-06 0.04864772283650545 1.966666666666671  3.483770450905253e-06 0.04864772283650545 1.996464646464651  3.483770450905253e-06 0.04864772283650545 2.02626262626263  3.483770450905253e-06 0.04864772283650545 2.056060606060611  3.483770450905253e-06 0.04864772283650545 2.08585858585859  3.483770450905254e-06 0.04864772283650545 2.11565656565657  3.483770450905253e-06 0.04864772283650545 2.14545454545455  3.483770450905253e-06 0.04864772283650545 2.175252525252529  3.483770450905253e-06 0.04864772283650545 2.205050505050508  3.483770450905253e-06 0.04864772283650545 2.234848484848488  3.483770450905253e-06 0.04864772283650545 2.264646464646468  3.483770450905253e-06 0.04864772283650545 2.294444444444448  3.483770450905253e-06 0.04864772283650545 2.324242424242427  3.483770450905253e-06 0.04864772283650545 2.354040404040407  3.483770450905253e-06 0.04864772283650545 2.383838383838387  3.483770450905254e-06 0.04864772283650545 2.413636363636366  3.483770450905253e-06 0.04864772283650545 2.443434343434346  3.483770450905253e-06 0.04864772283650545 2.473232323232326  3.483770450905253e-06 0.04864772283650545 2.503030303030305  3.483770450905253e-06 0.04864772283650545 2.532828282828285  3.483770450905253e-06 0.04864772283650545 2.562626262626264  3.483770450905253e-06 0.04864772283650545 2.592424242424244  3.483770450905254e-06 0.04864772283650545 2.622222222222224  3.483770450905253e-06 0.04864772283650545 2.652020202020203  3.483770450905253e-06 0.04864772283650545 2.681818181818183  3.483770450905253e-06 0.04864772283650545 2.711616161616163  3.483770450905253e-06 0.04864772283650545 2.741414141414142  3.483770450905254e-06 0.04864772283650545 2.771212121212122  3.483770450905253e-06 0.04864772283650545 2.801010101010102  3.483770450905253e-06 0.04864772283650545 2.830808080808081  3.483770450905253e-06 0.04864772283650545 2.860606060606061  3.483770450905253e-06 0.04864772283650545 2.890404040404041  3.483770450905253e-06 0.04864772283650545 2.92020202020202  0.9705745651584323 0.0546328692740541 2.95  0.9410403409854562 0.05904933268918263 2.95  0.9114506936029688 0.06307764259166145 2.95  0.8818365365778597 0.06692205633990718 2.95  0.852195425756178 0.07055529100758898 2.95  0.8225213484314672 0.07390813590379837 2.95  0.7928382076274137 0.07717791230068967 2.95  0.7631311412584285 0.08022519712851128 2.95  0.7333970986343074 0.08299595685799818 2.95  0.7036468593402103 0.08558339900696151 2.95  0.6738808305098906 0.08798485813956464 2.95  0.6440919092681797 0.09008334865923617 2.95  0.6142870835549664 0.09194561288677774 2.95  0.5844675933514397 0.09355367701932085 2.95  0.5546335832429207 0.09486496269114339 2.95  0.5247876530181904 0.095868659884793 2.95  0.4949363523436856 0.09668736484019783 2.95  0.4650802095563029 0.09731740696399105 2.95  0.4352195800941197 0.09768943189876603 2.95  0.405357042743103 0.09780828360274334 2.95  0.3754942534896675 0.09784351677757946 2.95  0.3456322298379585 0.09760772238205492 2.95  0.3157719755355017 0.09723970101506153 2.95  0.2859142869264596 0.09668561931752166 2.95  0.2560638915081948 0.09582390318294828 2.95  0.2262236143831659 0.09466390431188013 2.95  0.1964020995566796 0.09309886371899376 2.95  0.1665963941161298 0.09125714074218327 2.95  0.1368197180220126 0.08899319787719009 2.95  0.1070946678970156 0.08612945256268216 2.95  0.07746305623222323 0.08244010579101241 2.95  0.04805012948181673 0.07731042839253653 2.95  0.01932358256457366 0.06928107812002522 2.95  1 0.04955 0.02979797979797999  1 0.04955 0.05959595959595966  1 0.04955 0.08939393939393965  1 0.04955 0.1191919191919193  1 0.04955 0.1489898989898993  1 0.04955 0.178787878787879  1 0.04955 0.2085858585858589  1 0.04955 0.2383838383838386  1 0.04955 0.2681818181818186  1 0.04955 0.2979797979797986  1 0.04955 0.3277777777777782  1 0.04955 0.3575757575757582  1 0.04955 0.3873737373737379  1 0.04955 0.4171717171717179  1 0.04955 0.4469696969696979  1 0.04955 0.4767676767676775  1 0.04955 0.5065656565656572  1 0.04955 0.5363636363636372  1 0.04955 0.5661616161616169  1 0.04955 0.5959595959595969  1 0.04955 0.6257575757575765  1 0.04955 0.6555555555555564  1 0.04955 0.6853535353535362  1 0.04955 0.7151515151515158  1 0.04955 0.7449494949494958  1 0.04955 0.7747474747474755 
[...]
<PointData  Vectors="Displacement"> 
<DataArray  type="Float64"  Name="Displacement"  NumberOfComponents="3" format="ascii">0.0000000000000000e+00 0.0000000000000000e+00 0.0000000000000000e+00  0.0000000000000000e+00 0.0000000000000000e+00 0.0000000000000000e+00  8.1654465883531963e-05 -6.2030496462237242e-03 8.8957235962798070e-06  8.1762190196316847e-05 -6.2287071185934718e-03 -2.6216520273581952e-05  0.0000000000000000e+00 0.0000000000000000e+00 0.0000000000000000e+00  0.0000000000000000e+00 0.0000000000000000e+00 0.0000000000000000e+00  0.0000000000000000e+00 0.0000000000000000e+00 0.0000000000000000e+00  0.0000000000000000e+00 0.0000000000000000e+00 0.0000000000000000e+00  0.0000000000000000e+00 0.0000000000000000e+00 0.0000000000000000e+00  0.0000000000000000e+00 0.0000000000000000e+00 0.0000000000000000e+00  0.0000000000000000e+00 0.0000000000000000e+00 0.0000000000000000e+00  0.0000000000000000e+00 0.0000000000000000e+00 0.0000000000000000e+00  0.0000000000000000e+00 0.0000000000000000e+00 0.0000000000000000e+00  0.0000000000000000e+00 0.0000000000000000e+00 0.0000000000000000e+00  0.0000000000000000e+00 0.0000000000000000e+00 0.0000000000000000e+00  0.0000000000000000e+00 0.0000000000000000e+00 0.0000000000000000e+00  0.0000000000000000e+00 0.0000000000000000e+00 0.0000000000000000e+00  0.0000000000000000e+00 0.0000000000000000e+00 0.0000000000000000e+00  0.0000000000000000e+00 0.0000000000000000e+00 0.0000000000000000e+00  0.0000000000000000e+00 0.0000000000000000e+00 0.0000000000000000e+00  0.0000000000000000e+00 0.0000000000000000e+00 0.0000000000000000e+00  0.0000000000000000e+00 0.0000000000000000e+00 0.0000000000000000e+00  0.0000000000000000e+00 0.0000000000000000e+00 0.0000000000000000e+00  0.0000000000000000e+00 0.0000000000000000e+00 0.0000000000000000e+00  0.0000000000000000e+00 0.0000000000000000e+00 0.0000000000000000e+00  0.0000000000000000e+00 0.0000000000000000e+00 0.0000000000000000e+00  0.0000000000000000e+00 0.0000000000000000e+00 0.0000000000000000e+00  0.0000000000000000e+00 0.0000000000000000e+00 0.0000000000000000e+00  0.0000000000000000e+00 0.0000000000000000e+00 0.0000000000000000e+00  0.0000000000000000e+00 0.0000000000000000e+00 0.0000000000000000e+00  0.0000000000000000e+00 0.0000000000000000e+00 0.0000000000000000e+00  0.0000000000000000e+00 0.0000000000000000e+00 0.0000000000000000e+00  0.0000000000000000e+00 0.0000000000000000e+00 0.0000000000000000e+00  0.0000000000000000e+00 0.0000000000000000e+00 0.0000000000000000e+00  0.0000000000000000e+00 0.0000000000000000e+00 0.0000000000000000e+00  0.0000000000000000e+00 0.0000000000000000e+00 0.0000000000000000e+00  0.0000000000000000e+00 0.0000000000000000e+00 0.0000000000000000e+00  -5.3228176004561989e-08 1.1827987644772807e-06 1.4844152312159292e-07  1.3626051741601674e-07 6.3821522553357691e-07 6.2362577376951149e-07  3.4825185621878508e-07 -1.7073956975764662e-06 1.1687711985092422e-06  5.8228164916642254e-07 -6.3649078438674494e-06 1.3327695954747824e-06  5.5914362345442738e-07 -1.3295533676753054e-05 1.5400608294318047e-06  8.5656171898826269e-07 -2.2716109866419508e-05 1.6881521456282087e-06  9.9940462567103545e-07 -3.4835811715060667e-05 1.7264557745421284e-06  1.1327701379141654e-06 -4.8934584844557673e-05 2.2246255336248355e-06  1.4411717980923324e-06 -6.5372495474025181e-05 2.4203820359917552e-06  1.5888970453641510e-06 -8.4345853885009418e-05 2.5777213177064065e-06  2.0194682465130128e-06 -1.0535275253240370e-04 2.8184413412453227e-06  2.4755108315858053e-06 -1.2852487310901042e-04 2.8851759436432322e-06  2.6327508183024692e-06 -1.5412098978009506e-04 3.1196656117118582e-06  3.0561770700028440e-06 -1.8151073155186608e-04 2.7953369082861834e-06  3.2648139968266195e-06 -2.1093722331134431e-04 3.3083318263803434e-06  3.8304012533292569e-06 -2.4254672434313249e-04 3.2509209045957739e-06  4.2273918107752877e-06 -2.7550730878428571e-04 3.5013502693485633e-06  4.5182642393207095e-06 -3.1125228158828804e-04 3.7423344351040913e-06  5.1899450861549345e-06 -3.4864999348177241e-04 4.0083502583926805e-06  5.6357717858193976e-06 -3.8770545198753655e-04 3.7226169529805582e-06  6.1368583944846673e-06 -4.2805291156183378e-04 4.2880265614650545e-06  6.6207154945619891e-06 -4.7002723632817706e-04 4.8121499253670929e-06  7.5316807631375556e-06 -5.1375361494709405e-04 4.8489388574061312e-06  7.8913838551742168e-06 -5.5886580313354835e-04 4.9559930782320719e-06  8.7253291931672920e-06 -6.0538082342198542e-04 5.0731191988521949e-06  9.4484639360391116e-06 -6.5335348252617133e-04 4.8062229133990104e-06  9.8411424963867363e-06 -7.0326880168216223e-04 4.7690053635984166e-06  1.0364156238063913e-05 -7.5440015194552963e-04 5.1944602055034810e-06  1.1065461412143284e-05 -8.0727695384515737e-04 5.4697243313611873e-06  1.1870679335880736e-05 -8.6131681604415000e-04 5.6833844428269843e-06  1.2534973135420948e-05 -9.1645524121891045e-04 5.8625192971501546e-06  1.3309844774089602e-05 -9.7283708732907588e-04 6.0236129625383195e-06  1.4137970456534200e-05 -1.0306014009831032e-03 6.0741159947817684e-06  1.4930581525655676e-05 -1.0896626598703354e-03 5.9046370257648709e-06  1.5538501222980254e-05 -1.1494786507781176e-03 6.0088222895638315e-06  1.6247196254521158e-05 -1.2105352600845221e-03 6.4131340272222745e-06  1.7245184585189613e-05 -1.2727745883529486e-03 6.5122506204029593e-06  1.8086652772034393e-05 -1.3361007187107422e-03 6.5224535093780897e-06  1.8920184598222916e-05 -1.4004552210224123e-03 6.3917035030363519e-06  1.9622760775729204e-05 -1.4654484874353920e-03 6.6367759307362583e-06  2.0495653582110795e-05 -1.5314856175347189e-03 6.8259643201943294e-06  2.1452755686316512e-05 -1.5988200954322404e-03 7.0216744217059709e-06  2.2216877101315015e-05 -1.6670289356789355e-03 7.1638673681637030e-06  2.3256783387033722e-05 -1.7360938678178488e-03 7.2358763228568923e-06  2.4191208418459268e-05 -1.8060643359911906e-03 7.2597097956077980e-06  2.5068379492158822e-05 -1.8768497742466443e-03 7.2747360383057023e-06  2.6025908820654955e-05 -1.9482738269389801e-03 7.1339736519458927e-06  2.6922204942542809e-05 -2.0204869709169321e-03 7.3006085413236526e-06  2.7808860815863705e-05 -2.0933187323213713e-03 7.3810000326673614e-06  2.8817169107094734e-05 -2.1669409236616971e-03 7.5046289041988240e-06  2.9753503086599487e-05 -2.2413885701836455e-03 7.7437422314845296e-06  3.0754048816007603e-05 -2.3163868782376663e-03 7.8440074962442325e-06  3.1829258382905474e-05 -2.3920835876366717e-03 7.7063416631556587e-06  3.2707748357955293e-05 -2.4682378068420193e-03 7.7743458328554953e-06  3.3789432024267643e-05 -2.5450379023631933e-03 7.7900407823339274e-06  3.4721314905571239e-05 -2.6223928398978924e-03 7.8603218903786021e-06  3.5724754406251220e-05 -2.7001516723119913e-03 7.9586337966544589e-06  3.6711559721364961e-05 -2.7784529997753409e-03 8.1718027449771601e-06  3.7821722732350057e-05 -2.8572133364604983e-03 8.2277490286257189e-06  3.8886628187527685e-05 -2.9363794544557805e-03 8.1275618992937263e-06  3.9839682598623319e-05 -3.0159972294277089e-03 8.1704199392579717e-06  4.0846384751095792e-05 -3.0961098066874426e-03 8.3785531528855891e-06  4.2005412959476560e-05 -3.1766521908662931e-03 8.3792980564815095e-06  4.3083890346580398e-05 -3.2575865966441501e-03 8.3243179066997479e-06  4.4096120207392203e-05 -3.3388648971063887e-03 8.3382254151458765e-06  4.5146612914231586e-05 -3.4204251247102954e-03 8.4801045757382397e-06  4.6193673477489756e-05 -3.5023210048432864e-03 8.5600600094357202e-06  4.7329498005472960e-05 -3.5844375801163618e-03 8.5737886670069224e-06  4.8367365433467015e-05 -3.6668954511498097e-03 8.6116449138874479e-06  4.9501595130492771e-05 -3.7496049798418263e-03 8.6271802727291435e-06  5.0602465023025899e-05 -3.8325745053631143e-03 8.5723024037907497e-06  5.1653772538512357e-05 -3.9158286837160834e-03 8.5899664970709371e-06  5.2730618684975848e-05 -3.9992479113536037e-03 8.6934144312955688e-06  5.3810386477855966e-05 -4.0828552232063586e-03 8.7222914348268282e-06  5.4933515962893759e-05 -4.1666866882928205e-03 8.7531268799873303e-06  5.6033559410725205e-05 -4.2506527505769848e-03 8.7503167799215937e-06  5.7132633610918623e-05 -4.3347668425950132e-03 8.7653540085140092e-06  5.8255154113223116e-05 -4.4190354087264953e-03 8.7494808537068690e-06  5.9355998708398828e-05 -4.5034313028908379e-03 8.7671668413441402e-06  6.0450883558963257e-05 -4.5879504846691715e-03 8.7984295308881722e-06  6.1547658894935966e-05 -4.6725424779162127e-03 8.8341493516422007e-06  6.2678399569234591e-05 -4.7572486177661919e-03 8.8483111366920388e-06  6.3779451693539018e-05 -4.8420182815929243e-03 8.8513606735618925e-06  6.4900945968923682e-05 -4.9268616974182987e-03 8.8576087541666740e-06  6.6018086542779281e-05 -5.0117623332128396e-03 8.8562773554954426e-06  6.7138634122991726e-05 -5.0967222000030156e-03 8.8536014783601278e-06  6.8248164879708249e-05 -5.1817233202890080e-03 8.8693776890176556e-06  6.9356987365536097e-05 -5.2667642907448086e-03 8.8813370617880334e-06  7.0480170613928004e-05 -5.3518367875341286e-03 8.8837427712002602e-06  7.1601645363080123e-05 -5.4369261841831478e-03 8.8820520162663373e-06  7.2719498564284007e-05 -5.5220351698901131e-03 8.8869314783373195e-06  7.3831792706149411e-05 -5.6071541088851748e-03 8.8937010967446239e-06  7.4949046154015821e-05 -5.6922829675032345e-03 8.8955178230345418e-06  7.6068677977798364e-05 -5.7774168484531034e-03 8.8960194423444113e-06  7.7187297588975670e-05 -5.8625483518907669e-03 8.8962498832008767e-06  7.8303412640181612e-05 -5.9476786354254099e-03 8.8953173682882204e-06  7.9422072785754406e-05 -6.0328064408651134e-03 8.8955664402668741e-06  8.0538449948829857e-05 -6.1179302684891950e-03 8.8956203811930474e-06  8.1875246805709602e-05 -6.2280475879580924e-03 -1.0563870486675962e-05  8.1976895606403197e-05 -6.2273698889561855e-03 3.1838847880076025e-06  8.2073763022738849e-05 -6.2266705250844621e-03 1.5822372390254814e-05  8.2166553610433184e-05 -6.2259562118592762e-03 2.7935356364557553e-05  8.2253233806978430e-05 -6.2252379753103973e-03 3.9443325032240192e-05  8.2332399492758722e-05 -6.2245224152298259e-03 5.0151793844077003e-05  8.2409668611145145e-05 -6.2238052292464341e-03 6.0620398402276148e-05  8.2483092248609430e-05 -6.2230875322312335e-03 7.0452125893310326e-05  8.2548711490888635e-05 -6.2223683112648930e-03 7.9494304369843221e-05  8.2612945074052329e-05 -6.2216478720691585e-03 8.8006887306947654e-05  8.2670876255290258e-05 -6.2209185089208271e-03 9.5989639347659008e-05  8.2724206589885203e-05 -6.2201843811567114e-03 1.0310229762089862e-04  8.2770918165328227e-05 -6.2194434002160164e-03 1.0954317214654500e-04  8.2813743541215558e-05 -6.2187041229034819e-03 1.1525491039273854e-04  8.2848487126691445e-05 -6.2179558649458760e-03 1.2012139272126054e-04  8.2879692950927952e-05 -6.2172046062844563e-03 1.2410539761413355e-04  8.2904811713262663e-05 -6.2164460764513587e-03 1.2756114004991575e-04  8.2926518284973178e-05 -6.2156813019424067e-03 1.3047838115351029e-04  8.2943433352776049e-05 -6.2149092276765740e-03 1.3265689121489345e-04  8.2953663495216373e-05 -6.2141322406765471e-03 1.3411316376009437e-04  8.2961129633347860e-05 -6.2133513212677353e-03 1.3533246112119158e-04  8.2962197079555240e-05 -6.2125636066237867e-03 1.3577790217096577e-04  8.2960633371488359e-05 -6.2117688233138332e-03 1.3584473168202281e-04  8.2955391015153776e-05 -6.2109677311180467e-03 1.3538103925523590e-04  8.2940248084186402e-05 -6.2101622816667611e-03 1.3403990337404641e-04  8.2916188481200066e-05 -6.2093508445101257e-03 1.3184639820596866e-04  8.2880859824930160e-05 -6.2085341438491677e-03 1.2849637796235604e-04  8.2837477722611734e-05 -6.2077124375298472e-03 1.2435454629284521e-04  8.2779970649855957e-05 -6.2068861530913382e-03 1.1900689318975540e-04  8.2703886376490351e-05 -6.2060566811693897e-03 1.1194311280004628e-04  8.2602896756009761e-05 -6.2052286424644481e-03 1.0251717654705727e-04  8.2461292993297412e-05 -6.2044021998328034e-03 8.8969689583834338e-05  8.2235924423937275e-05 -6.2035939510863055e-03 6.7111024576900738e-05  -2.8485541306462338e-07 6.6534685103941384e-07 -3.4026517027768823e-08  -5.2165884790265149e-07 2.5603558628503298e-07 -2.4200655377895069e-07  -6.0697446397576859e-07 -7.6876798210408707e-07 -7.8775716367800047e-07  -4.5148174867966507e-07 -5.1266902823701522e-06 -1.7258984162172538e-06  1.2968928826556049e-08 -1.0077369566370452e-05 -2.5863019907760524e-06  1.9968380722778886e-07 -1.5730558535504929e-05 -2.8577232060125792e-06  3.7884860229031376e-07 -2.6962059421418277e-05 -3.2564485025354966e-06  6.3568831235521064e-07 -3.8844490744041293e-05 -3.7086692524294542e-06  4.8316277152121795e-07 -5.2692835047925077e-05 -4.0933611508540188e-06  7.9918868271092749e-07 -6.8709986102218350e-05 -4.9076629923821136e-06  1.5569703989419229e-06 -8.7557198887292393e-05 -5.9882424920233858e-06  2.2967029951520669e-06 -1.0728555682216725e-04 -7.0917907576485755e-06  3.1499179547768269e-06 -1.2802530118947514e-04 -8.1422961565607866e-06  3.0702715264091354e-06 -1.5501243836268280e-04 -8.2782809311436038e-06  3.6323911567505528e-06 -1.8378475705971414e-04 -8.7617700742000770e-06  3.9389489451505039e-06 -2.1281418015774097e-04 -9.5128277236022799e-06  4.4039608940035968e-06 -2.4510901966116346e-04 -1.0188484006290960e-05  4.8080129324858770e-06 -2.8032302382743511e-04 -1.1282418808771010e-05  5.2165589088937262e-06 -3.1810725046367349e-04 -1.2473830515292510e-05  5.8816322268686759e-06 -3.5837159605042930e-04 -1.2761130306254653e-05  6.1405248608338843e-06 -4.0025900673222023e-04 -1.3016280530915757e-05  6.6590701033203733e-06 -4.4278733378337435e-04 -1.3489033853505852e-05  7.2866354692718328e-06 -4.8651423615798825e-04 -1.3825574374735244e-05  7.8068518617156051e-06 -5.3210651050465414e-04 -1.4376402230712324e-05  8.5281263493939537e-06 -5.7919467583169833e-04 -1.5016516387852146e-05  9.0425009090257033e-06 -6.2787374166280380e-04 -1.5068762247814059e-05  9.7038847697581229e-06 -6.7856757186670333e-04 -1.6080696018207247e-05  1.0258359265433147e-05 -7.3163064921401841e-04 -1.6530587269334060e-05  1.0945302002213418e-05 -7.8541410599459582e-04 -1.7024478654253479e-05  1.1903259831735335e-05 -8.4067480855004367e-04 -1.7616537631263797e-05  1.2695663275196229e-05 -8.9627055139735443e-04 -1.7906101998590974e-05  1.3391521839679567e-05 -9.5301253403937353e-04 -1.7969458783420407e-05  1.4207202461412923e-05 -1.0111871025119245e-03 -1.8478250928801041e-05  1.4907229160746712e-05 -1.0708519368228643e-03 -1.8928527976337599e-05  1.5595150134328291e-05 -1.1321076095202728e-03 -1.8937487669738605e-05  1.6466179164174952e-05 -1.1938297302504812e-03 -1.9529595279090519e-05  1.7398899833749517e-05 -1.2558674136467661e-03 -1.9593013017805211e-05  1.8315250272597277e-05 -1.3201203216096314e-03 -1.9940635927519962e-05  1.9079019311972406e-05 -1.3853900011525141e-03 -2.0416713888199585e-05  1.9995019753946045e-05 -1.4514551893994767e-03 -2.0783540636954422e-05  2.0801915157869522e-05 -1.5196610190761563e-03 -2.1205902117739167e-05  2.1659270783106221e-05 -1.5884536669765264e-03 -2.1428868444559638e-05  2.2557060662003264e-05 -1.6579704515296164e-03 -2.1758413052814050e-05  2.3463905868394970e-05 -1.7278162094969598e-03 -2.1845521983871676e-05  2.4387439493399480e-05 -1.7989629256855166e-03 -2.1946077052205717e-05  2.5317969311609892e-05 -1.8705246437981991e-03 -2.2211309192192385e-05  2.6147583365842387e-05 -1.9431532390656919e-03 -2.2393106864509643e-05  2.7096038504576751e-05 -2.0160612910667020e-03 -2.2544994258653334e-05  2.7970860142370745e-05 -2.0896455484407926e-03 -2.2872068189261428e-05  2.9060691057639647e-05 -2.1643262288884115e-03 -2.3101566607610177e-05  3.0019611279839736e-05 -2.2396036026050797e-03 -2.3277809674608749e-05  3.0937515539186711e-05 -2.3154967514919999e-03 -2.3596479069745699e-05  3.1916687435388355e-05 -2.3920934261281840e-03 -2.3820833265517769e-05  3.2920398232272947e-05 -2.4693146334351613e-03 -2.3845585416281657e-05  3.3879419058193073e-05 -2.5470267574464705e-03 -2.4073626552878354e-05  3.4895732230442990e-05 -2.6253757955064191e-03 -2.4251785887661011e-05  3.5978870190928490e-05 -2.7038702421720534e-03 -2.4383468545561267e-05  3.6954001147864029e-05 -2.7834323325005273e-03 -2.4528816201276463e-05  3.7915686562410722e-05 -2.8636806521854141e-03 -2.4653162869310912e-05  3.8899501898214309e-05 -2.9442197187878843e-03 -2.4848010627812178e-05  3.9923825766726689e-05 -3.0249711455217197e-03 -2.4965000009004965e-05  4.0992244241229594e-05 -3.1060733375225047e-03 -2.5068729721265775e-05  4.2092274871284069e-05 -3.1871962244704472e-03 -2.5174226440426373e-05  4.3161376337402616e-05 -3.2686364197818335e-03 -2.5214214789292546e-05  4.4244485075247817e-05 -3.3502664590003058e-03 -2.5334940714119569e-05  4.5290008589978855e-05 -3.4326121873467464e-03 -2.5396378834623599e-05  4.6380065678247285e-05 -3.5150248638261402e-03 -2.5463434405565088e-05  4.7457823488832229e-05 -3.5977989236009580e-03 -2.5552003845374386e-05  4.8512832151231175e-05 -3.6810178450215141e-03 -2.5650257116302208e-05  4.9611479333301786e-05 -3.7644708744887833e-03 -2.5712500424058041e-05  5.0629932344044619e-05 -3.8482784684893382e-03 -2.5825033689840049e-05  5.1752789000666242e-05 -3.9320600382034216e-03 -2.5873522815695343e-05  5.2842084666351641e-05 -4.0161420319417222e-03 -2.5907869419872668e-05  5.3934658514099690e-05 -4.1002679618175131e-03 -2.5965721453024447e-05  5.5009930189090299e-05 -4.1847406758249899e-03 -2.6035710279047753e-05  5.6098418151349318e-05 -4.2692633504114062e-03 -2.6086696425845372e-05  5.7207876786245139e-05 -4.3539604405493770e-03 -2.6099596149729383e-05  5.8301182758547685e-05 -4.4387141066879517e-03 -2.6113895563300455e-05  5.9400163605334074e-05 -4.5236552108833721e-03 -2.6145241504522877e-05  6.0500727735593073e-05 -4.6086865778474321e-03 -2.6167451188035933e-05  6.1610769440303425e-05 -4.6937274180093459e-03 -2.6185115875551465e-05  6.2716110058821391e-05 -4.7788479354042516e-03 -2.6210234806196145e-05  6.3826447319008693e-05 -4.8639895066191659e-03 -2.6232251750575755e-05  6.4953927483250208e-05 -4.9492043927470229e-03 -2.6227897324716838e-05  6.6077649708025442e-05 -5.0344483658585990e-03 -2.6233431209824474e-05  6.7183397712412994e-05 -5.1197670270100200e-03 -2.6236774621285583e-05  6.8292802969819545e-05 -5.2051142367254321e-03 -2.6246307133775026e-05  6.9411063847988681e-05 -5.2904493800819156e-03 -2.6246486119355076e-05  7.0535955449689433e-05 -5.3757875741356547e-03 -2.6243636998536908e-05  7.1648245400409143e-05 -5.4611643089703468e-03 -2.6247779731681557e-05  7.2767311976059139e-05 -5.5465065979631838e-03 -2.6238367881599422e-05  7.3893762585817673e-05 -5.6318146869657202e-03 -2.6238434893878544e-05  7.5017695644361292e-05 -5.7171159395097990e-03 -2.6235265209096853e-05  7.6140335124888167e-05 -5.8024175544552714e-03 -2.6228623870148200e-05  7.7265337511350045e-05 -5.8876944601310224e-03 -2.6224717261766625e-05  7.8385230884319736e-05 -5.9729638728101093e-03 -2.6216587790160506e-05  7.9507290760458038e-05 -6.0582344076338590e-03 -2.6213930607011507e-05  8.0632901484938927e-05 -6.1434732423201882e-03 -2.6215723955314163e-05  8.1100805081944842e-05 -6.2036378063522720e-03 -4.8005746064360395e-05  8.0850899405290967e-05 -6.2044391665462949e-03 -7.4501131241607301e-05  8.0709513216804398e-05 -6.2052647160436422e-03 -9.0242679979467597e-05  8.0605553469244629e-05 -6.2060931416909925e-03 -1.0225757214137896e-04  8.0528330535328761e-05 -6.2069209584090512e-03 -1.1177830955073700e-04  8.0471088030653875e-05 -6.2077463698697486e-03 -1.1960172624915716e-04  8.0426001844579372e-05 -6.2085673703954321e-03 -1.2626888710186123e-04  8.0397735460982381e-05 -6.2093829232078108e-03 -1.3149186457301885e-04  8.0379119840568496e-05 -6.2101941650011556e-03 -1.3566386876916824e-04  8.0372958263540562e-05 -6.2109998907826170e-03 -1.3892199455886828e-04  8.0375111484041686e-05 -6.2117990157302344e-03 -1.4133373977677675e-04  8.0383344725560712e-05 -6.2125932133729970e-03 -1.4311019855720481e-04  8.0399004610785644e-05 -6.2133813836457562e-03 -1.4411180338