<?xml version="1.0"?>
<VTKFile type="UnstructuredGrid"  version="0.1"  >
<UnstructuredGrid>
<Piece  NumberOfPoints="10958" NumberOfCells="41820">
<Points>
<DataArray  type="Float64"  NumberOfComponents="3"  format="ascii">1 0.04955 0  3.483770450905253e-06 0.04864772283650545 0  3.483770450905253e-06 0.04864772283650545 2.95  1 0.04955 2.95  0.9705745651584323 0.0546328692740541 0  0.9410403409854562 0.05904933268918263 0  0.9114506936029688 0.06307764259166145 0  0.8818365365778597 0.06692205633990718 0  0.852195425756178 0.07055529100758898 0  0.8225213484314672 0.07390813590379837 0  0.7928382076274137 0.07717791230068967 0  0.7631311412584285 0.08022519712851128 0  0.7333970986343074 0.08299595685799818 0  0.7036468593402103 0.08558339900696151 0  0.6738808305098906 0.08798485813956464 0  0.6440919092681797 0.09008334865923617 0  0.6142870835549664 0.09194561288677774 0  0.5844675933514397 0.09355367701932085 0  0.5546335832429207 0.09486496269114339 0  0.5247876530181904 0.095868659884793 0  0.4949363523436856 0.09668736484019783 0  0.4650802095563029 0.09731740696399105 0  0.4352195800941197 0.09768943189876603 0  0.405357042743103 0.09780828360274334 0  0.3754942534896675 0.09784351677757946 0  0.3456322298379585 0.09760772238205492 0  0.3157719755355017 0.09723970101506153 0  0.2859142869264596 0.09668561931752166 0  0.2560638915081948 0.09582390318294828 0  0.2262236143831659 0.09466390431188013 0  0.1964020995566796 0.09309886371899376 0  0.1665963941161298 0.09125714074218327 0  0.1368197180220126 0.08899319787719009 0  0.1070946678970156 0.08612945256268216 0  0.07746305623222323 0.08244010579101241 0  0.04805012948181673 0.07731042839253653 0  0.01932358256457366 0.06928107812002522 0  3.483770450905253e-06 0.04864772283650545 0.02979797979797999  3.483770450905253e-06 0.04864772283650545 0.05959595959595966  3.483770450905253e-06 0.04864772283650545 0.08939393939393965  3.483770450905253e-06 0.04864772283650545 0.1191919191919193  3.483770450905253e-06 0.04864772283650545 0.1489898989898993  3.483770450905253e-06 0.04864772283650545 0.178787878787879  3.483770450905253e-06 0.04864772283650545 0.2085858585858589  3.483770450905253e-06 0.04864772283650545 0.2383838383838386  3.483770450905253e-06 0.04864772283650545 0.2681818181818186  3.483770450905253e-06 0.04864772283650545 0.2979797979797986  3.483770450905253e-06 0.04864772283650545 0.3277777777777782  3.483770450905253e-06 0.04864772283650545 0.3575757575757582  3.483770450905253e-06 0.04864772283650545 0.3873737373737379  3.483770450905253e-06 0.04864772283650545 0.4171717171717179  3.483770450905253e-06 0.04864772283650545 0.4469696969696979  3.483770450905253e-06 0.04864772283650545 0.4767676767676775  3.483770450905253e-06 0.04864772283650545 0.5065656565656572  3.483770450905253e-06 0.04864772283650545 0.5363636363636372  3.483770450905253e-06 0.04864772283650545 0.5661616161616169  3.483770450905254e-06 0.04864772283650545 0.5959595959595969  3.483770450905253e-06 0.04864772283650545 0.6257575757575765  3.483770450905254e-06 0.04864772283650545 0.6555555555555564  3.483770450905253e-06 0.04864772283650545 0.6853535353535362  3.483770450905253e-06 0.04864772283650545 0.7151515151515158  3.483770450905253e-06 0.04864772283650545 0.7449494949494958  3.483770450905253e-06 0.04864772283650545 0.7747474747474755  3.483770450905253e-06 0.04864772283650545 0.8045454545454552  3.483770450905253e-06 0.04864772283650545 0.8343434343434351  3.483770450905253e-06 0.04864772283650545 0.8641414141414151  3.483770450905253e-06 0.04864772283650545 0.8939393939393945  3.483770450905254e-06 0.04864772283650545 0.9237373737373745  3.483770450905253e-06 0.04864772283650545 0.9535353535353545  3.483770450905254e-06 0.04864772283650545 0.9833333333333341  3.483770450905253e-06 0.04864772283650545 1.013131313131314  3.483770450905254e-06 0.04864772283650545 1.042929292929294  3.483770450905253e-06 0.04864772283650545 1.072727272727274  3.483770450905254e-06 0.04864772283650545 1.102525252525254  3.483770450905253e-06 0.04864772283650545 1.132323232323234  3.483770450905254e-06 0.04864772283650545 1.162121212121214  3.483770450905253e-06 0.04864772283650545 1.191919191919194  3.483770450905254e-06 0.04864772283650545 1.221717171717174  3.483770450905253e-06 0.04864772283650545 1.251515151515153  3.483770450905254e-06 0.04864772283650545 1.281313131313133  3.483770450905253e-06 0.04864772283650545 1.311111111111113  3.483770450905253e-06 0.04864772283650545 1.340909090909093  3.483770450905253e-06 0.04864772283650545 1.370707070707073  3.483770450905253e-06 0.04864772283650545 1.400505050505053  3.483770450905253e-06 0.04864772283650545 1.430303030303033  3.483770450905253e-06 0.04864772283650545 1.460101010101013  3.483770450905253e-06 0.04864772283650545 1.489898989898993  3.483770450905253e-06 0.04864772283650545 1.519696969696973  3.483770450905253e-06 0.04864772283650545 1.549494949494953  3.483770450905253e-06 0.04864772283650545 1.579292929292933  3.483770450905253e-06 0.04864772283650545 1.609090909090913  3.483770450905253e-06 0.04864772283650545 1.638888888888893  3.483770450905254e-06 0.04864772283650545 1.668686868686872  3.483770450905253e-06 0.04864772283650545 1.698484848484852  3.483770450905254e-06 0.04864772283650545 1.728282828282832  3.483770450905253e-06 0.04864772283650545 1.758080808080812  3.483770450905254e-06 0.04864772283650545 1.787878787878792  3.483770450905253e-06 0.04864772283650545 1.817676767676772  3.483770450905254e-06 0.04864772283650545 1.847474747474752  3.483770450905253e-06 0.04864772283650545 1.877272727272732  3.483770450905254e-06 0.04864772283650545 1.907070707070712  3.483770450905253e-06 0.04864772283650545 1.936868686868691  3.483770450905253e-06 0.04864772283650545 1.966666666666671  3.483770450905253e-06 0.04864772283650545 1.996464646464651  3.483770450905253e-06 0.04864772283650545 2.02626262626263  3.483770450905253e-06 0.04864772283650545 2.056060606060611  3.483770450905253e-06 0.04864772283650545 2.08585858585859  3.483770450905254e-06 0.04864772283650545 2.11565656565657  3.483770450905253e-06 0.04864772283650545 2.14545454545455  3.483770450905253e-06 0.04864772283650545 2.175252525252529  3.483770450905253e-06 0.04864772283650545 2.205050505050508  3.483770450905253e-06 0.04864772283650545 2.234848484848488  3.483770450905253e-06 0.04864772283650545 2.264646464646468  3.483770450905253e-06 0.04864772283650545 2.294444444444448  3.483770450905253e-06 0.04864772283650545 2.324242424242427  3.483770450905253e-06 0.04864772283650545 2.354040404040407  3.483770450905253e-06 0.04864772283650545 2.383838383838387  3.483770450905254e-06 0.04864772283650545 2.413636363636366  3.483770450905253e-06 0.04864772283650545 2.443434343434346  3.483770450905253e-06 0.04864772283650545 2.473232323232326  3.483770450905253e-06 0.04864772283650545 2.503030303030305  3.483770450905253e-06 0.04864772283650545 2.532828282828285  3.483770450905253e-06 0.04864772283650545 2.562626262626264  3.483770450905253e-06 0.04864772283650545 2.592424242424244  3.483770450905254e-06 0.04864772283650545 2.622222222222224  3.483770450905253e-06 0.04864772283650545 2.652020202020203  3.483770450905253e-06 0.04864772283650545 2.681818181818183  3.483770450905253e-06 0.04864772283650545 2.711616161616163  3.483770450905253e-06 0.04864772283650545 2.741414141414142  3.483770450905254e-06 0.04864772283650545 2.771212121212122  3.483770450905253e-06 0.04864772283650545 2.801010101010102  3.483770450905253e-06 0.04864772283650545 2.830808080808081  3.483770450905253e-06 0.04864772283650545 2.860606060606061  3.483770450905253e-06 0.04864772283650545 2.890404040404041  3.483770450905253e-06 0.04864772283650545 2.92020202020202  0.9705745651584323 0.0546328692740541 2.95  0.9410403409854562 0.05904933268918263 2.95  0.9114506936029688 0.06307764259166145 2.95  0.8818365365778597 0.06692205633990718 2.95  0.852195425756178 0.07055529100758898 2.95  0.8225213484314672 0.07390813590379837 2.95  0.7928382076274137 0.07717791230068967 2.95  0.7631311412584285 0.08022519712851128 2.95  0.7333970986343074 0.08299595685799818 2.95  0.7036468593402103 0.08558339900696151 2.95  0.6738808305098906 0.08798485813956464 2.95  0.6440919092681797 0.09008334865923617 2.95  0.6142870835549664 0.09194561288677774 2.95  0.5844675933514397 0.09355367701932085 2.95  0.5546335832429207 0.09486496269114339 2.95  0.5247876530181904 0.095868659884793 2.95  0.4949363523436856 0.09668736484019783 2.95  0.4650802095563029 0.09731740696399105 2.95  0.4352195800941197 0.09768943189876603 2.95  0.405357042743103 0.09780828360274334 2.95  0.3754942534896675 0.09784351677757946 2.95  0.3456322298379585 0.09760772238205492 2.95  0.3157719755355017 0.09723970101506153 2.95  0.2859142869264596 0.09668561931752166 2.95  0.2560638915081948 0.09582390318294828 2.95  0.2262236143831659 0.09466390431188013 2.95  0.1964020995566796 0.09309886371899376 2.95  0.1665963941161298 0.09125714074218327 2.95  0.1368197180220126 0.08899319787719009 2.95  0.1070946678970156 0.08612945256268216 2.95  0.07746305623222323 0.08244010579101241 2.95  0.04805012948181673 0.07731042839253653 2.95  0.01932358256457366 0.06928107812002522 2.95  1 0.04955 0.02979797979797999  1 0.04955 0.05959595959595966  1 0.04955 0.08939393939393965  1 0.04955 0.1191919191919193  1 0.04955 0.1489898989898993  1 0.04955 0.178787878787879  1 0.04955 0.2085858585858589  1 0.04955 0.2383838383838386  1 0.04955 0.2681818181818186  1 0.04955 0.2979797979797986  1 0.04955 0.3277777777777782  1 0.04955 0.3575757575757582  1 0.04955 0.3873737373737379  1 0.04955 0.4171717171717179  1 0.04955 0.4469696969696979  1 0.04955 0.4767676767676775  1 0.04955 0.5065656565656572  1 0.04955 0.5363636363636372  1 0.04955 0.5661616161616169  1 0.04955 0.5959595959595969  1 0.04955 0.6257575757575765  1 0.04955 0.6555555555555564  1 0.04955 0.6853535353535362  1 0.04955 0.7151515151515158  1 0.04955 0.7449494949494958  1 0.04955 0.7747474747474755 
[...]
<PointData  Vectors="Displacement"> 
<DataArray  type="Float64"  Name="Displacement"  NumberOfComponents="3" format="ascii">0.0000000000000000e+00 0.0000000000000000e+00 0.0000000000000000e+00  0.0000000000000000e+00 0.0000000000000000e+00 0.0000000000000000e+00  1.4515510588425089e-05 -1.1650920156297973e-03 1.3658187540540868e-06  1.4521873504983444e-05 -1.1724936414750267e-03 -4.2100512157483353e-06  0.0000000000000000e+00 0.0000000000000000e+00 0.0000000000000000e+00  0.0000000000000000e+00 0.0000000000000000e+00 0.0000000000000000e+00  0.0000000000000000e+00 0.0000000000000000e+00 0.0000000000000000e+00  0.0000000000000000e+00 0.0000000000000000e+00 0.0000000000000000e+00  0.0000000000000000e+00 0.0000000000000000e+00 0.0000000000000000e+00  0.0000000000000000e+00 0.0000000000000000e+00 0.0000000000000000e+00  0.0000000000000000e+00 0.0000000000000000e+00 0.0000000000000000e+00  0.0000000000000000e+00 0.0000000000000000e+00 0.0000000000000000e+00  0.0000000000000000e+00 0.0000000000000000e+00 0.0000000000000000e+00  0.0000000000000000e+00 0.0000000000000000e+00 0.0000000000000000e+00  0.0000000000000000e+00 0.0000000000000000e+00 0.0000000000000000e+00  0.0000000000000000e+00 0.0000000000000000e+00 0.0000000000000000e+00  0.0000000000000000e+00 0.0000000000000000e+00 0.0000000000000000e+00  0.0000000000000000e+00 0.0000000000000000e+00 0.0000000000000000e+00  0.0000000000000000e+00 0.0000000000000000e+00 0.0000000000000000e+00  0.0000000000000000e+00 0.0000000000000000e+00 0.0000000000000000e+00  0.0000000000000000e+00 0.0000000000000000e+00 0.0000000000000000e+00  0.0000000000000000e+00 0.0000000000000000e+00 0.0000000000000000e+00  0.0000000000000000e+00 0.0000000000000000e+00 0.0000000000000000e+00  0.0000000000000000e+00 0.0000000000000000e+00 0.0000000000000000e+00  0.0000000000000000e+00 0.0000000000000000e+00 0.0000000000000000e+00  0.0000000000000000e+00 0.0000000000000000e+00 0.0000000000000000e+00  0.0000000000000000e+00 0.0000000000000000e+00 0.0000000000000000e+00  0.0000000000000000e+00 0.0000000000000000e+00 0.0000000000000000e+00  0.0000000000000000e+00 0.0000000000000000e+00 0.0000000000000000e+00  0.0000000000000000e+00 0.0000000000000000e+00 0.0000000000000000e+00  0.0000000000000000e+00 0.0000000000000000e+00 0.0000000000000000e+00  0.0000000000000000e+00 0.0000000000000000e+00 0.0000000000000000e+00  0.0000000000000000e+00 0.0000000000000000e+00 0.0000000000000000e+00  0.0000000000000000e+00 0.0000000000000000e+00 0.0000000000000000e+00  0.0000000000000000e+00 0.0000000000000000e+00 0.0000000000000000e+00  0.0000000000000000e+00 0.0000000000000000e+00 0.0000000000000000e+00  0.0000000000000000e+00 0.0000000000000000e+00 0.0000000000000000e+00  -1.8378126590298017e-08 2.4309738098041282e-07 2.6364008806544693e-08  2.7937135520391136e-08 1.8941168378340366e-08 1.4348048176776655e-07  7.6453247338808188e-08 -6.6998326950576149e-07 2.7576318986773094e-07  1.3651155876243128e-07 -1.9456534552126625e-06 3.0602524542806261e-07  1.2806392341635625e-07 -3.7867816580609123e-06 3.5037904214290807e-07  1.9783297906154491e-07 -6.2383945161658739e-06 3.7788224800080515e-07  2.3188690515660182e-07 -9.3374926889056549e-06 3.7898297411790276e-07  2.5955845560361498e-07 -1.2904676738299102e-05 4.9186992890554204e-07  3.3126385437509030e-07 -1.7023867559275927e-05 5.3050435249715186e-07  3.6595248492784707e-07 -2.1725944331845972e-05 5.6011789828324757e-07  4.6224778107434207e-07 -2.6889477116544345e-05 6.0785976234833857e-07  5.6409143278506971e-07 -3.2535624562909175e-05 6.1647494594683673e-07  6.0004301102056165e-07 -3.8713532612605861e-05 6.6427165401716737e-07  6.9670771835065552e-07 -4.5278619409142598e-05 5.9227299302015356e-07  7.4140409114465663e-07 -5.2277587929028752e-05 6.9675002065852334e-07  8.6823832590584436e-07 -5.9732049679248972e-05 6.8071347321612560e-07  9.5483395076151721e-07 -6.7467049508540493e-05 7.3128687130751035e-07  1.0220840791735658e-06 -7.5762321784447447e-05 7.7515297457352420e-07  1.1614502419540548e-06 -8.4382814389848181e-05 8.2468466265307073e-07  1.2652307064151694e-06 -9.3323550351464150e-05 7.6785615247158778e-07  1.3711985818091961e-06 -1.0250989994967307e-04 8.7352325500301867e-07  1.4715013307909119e-06 -1.1200254078216585e-04 9.6912767584053163e-07  1.6581338573333294e-06 -1.2181900741111578e-04 9.7082989613670764e-07  1.7404531836071143e-06 -1.3188520641674059e-04 9.8726075163585777e-07  1.9051359941967644e-06 -1.4219980269173670e-04 1.0046986905853085e-06  2.0561390055962562e-06 -1.5276852375924202e-04 9.5639400886751985e-07  2.1460673336300261e-06 -1.6366672569362751e-04 9.4997333464830171e-07  2.2586854652626350e-06 -1.7476639375660390e-04 1.0213258591461085e-06  2.3979958503258707e-06 -1.8614802714725839e-04 1.0632321782793014e-06  2.5573500200586175e-06 -1.9771104765629779e-04 1.0949006454153843e-06  2.6948935053465579e-06 -2.0944056781320263e-04 1.1220683776628723e-06  2.8466183343376004e-06 -2.2135797150469726e-04 1.1423699934805279e-06  3.0060547247109245e-06 -2.3347915539740705e-04 1.1466066048522096e-06  3.1655339770488809e-06 -2.4578466070943918e-04 1.1227895999228533e-06  3.2944713596074179e-06 -2.5819171783078554e-04 1.1355759498839253e-06  3.4331507718390868e-06 -2.7077089523530162e-04 1.1897479613165530e-06  3.6155388529317090e-06 -2.8350882606353607e-04 1.2011382217846738e-06  3.7784859223728570e-06 -2.9638747629831839e-04 1.2026945312838502e-06  3.9395984753609165e-06 -3.0939614070566140e-04 1.1851440044724678e-06  4.0817679892453891e-06 -3.2247751112014295e-04 1.2142917140140332e-06  4.2462563990110650e-06 -3.3568489315990969e-04 1.2375649479746012e-06  4.4195055340789568e-06 -3.4904380956299444e-04 1.2580814628903277e-06  4.5716509152462822e-06 -3.6249716993366391e-04 1.2734494471069464e-06  4.7532935172861192e-06 -3.7604273045323098e-04 1.2791275811323050e-06  4.9244892695049104e-06 -3.8968149557010645e-04 1.2806900522236402e-06  5.0892363079276815e-06 -4.0339993558027171e-04 1.2812351722787482e-06  5.2648962823683730e-06 -4.1717843302186238e-04 1.2680119600616049e-06  5.4300390738001728e-06 -4.3103087803438435e-04 1.2843587276540111e-06  5.5955802334270105e-06 -4.4493791717048139e-04 1.2914738987524751e-06  5.7732929920050825e-06 -4.5891436370509967e-04 1.3035768423264251e-06  5.9416275195961922e-06 -4.7295942925335889e-04 1.3225291277504008e-06  6.1172324300273555e-06 -4.8704801427622215e-04 1.3291913421283560e-06  6.3015991372507909e-06 -5.0118879245728508e-04 1.3184766268325445e-06  6.4665779036983990e-06 -5.1536183557449955e-04 1.3235193411180796e-06  6.6488985149572594e-06 -5.2957918112612014e-04 1.3258680512164545e-06  6.8200640172146292e-06 -5.4383121584206595e-04 1.3300102550540538e-06  6.9958125662298789e-06 -5.5810782882083874e-04 1.3371022077493105e-06  7.1688788015693363e-06 -5.7241518915221012e-04 1.3490314308546895e-06  7.3501201181688311e-06 -5.8674919556290399e-04 1.3514909761572099e-06  7.5321183097773252e-06 -6.0110391084462788e-04 1.3466217310230246e-06  7.7051730824265378e-06 -6.1548005708770333e-04 1.3487917316031324e-06  7.8795744515428970e-06 -6.2987845751599585e-04 1.3582618112292624e-06  8.0628116286652109e-06 -6.4429521305665199e-04 1.3579089721432156e-06  8.2435229638918913e-06 -6.5872698019149556e-04 1.3555523788501026e-06  8.4206101614993821e-06 -6.7317047975933920e-04 1.3568413851395107e-06  8.5976079994065559e-06 -6.8762174078887547e-04 1.3612395840319751e-06  8.7757074607954597e-06 -7.0208248261246413e-04 1.3635646246305247e-06  8.9566191834361641e-06 -7.1654804960315851e-04 1.3640769397321017e-06  9.1349899763626130e-06 -7.3102159974851343e-04 1.3647862879900701e-06  9.3149256365353085e-06 -7.4549966247688655e-04 1.3647570589519254e-06  9.4954332311322969e-06 -7.5998086479068042e-04 1.3640528880051480e-06  9.6743590734784323e-06 -7.7446481936466866e-04 1.3645839882412809e-06  9.8523845246630058e-06 -7.8895003168672623e-04 1.3660574805141378e-06  1.0031842891995922e-05 -8.0343632629906116e-04 1.3661317139390918e-06  1.0211440658975710e-05 -8.1792313349092049e-04 1.3662262082790856e-06  1.0391248787046022e-05 -8.3240859796403417e-04 1.3665282929251284e-06  1.0570218110701838e-05 -8.4689309244372437e-04 1.3663307854931836e-06  1.0749993554061745e-05 -8.6137591925035395e-04 1.3665580301172871e-06  1.0929689095510464e-05 -8.7585700819520543e-04 1.3670077344167253e-06  1.1108962901579575e-05 -8.9033569198342642e-04 1.3669227163798471e-06  1.1288311203265688e-05 -9.0481253371177124e-04 1.3663186158596910e-06  1.1467469681604658e-05 -9.1928667686344708e-04 1.3661153999761210e-06  1.1647125368668192e-05 -9.3375855201465862e-04 1.3661472652989971e-06  1.1826222092246766e-05 -9.4822812985125775e-04 1.3659671377905818e-06  1.2005470045526008e-05 -9.6269561543755569e-04 1.3660996957657923e-06  1.2184892153508010e-05 -9.7716059501174618e-04 1.3663874144122929e-06  1.2364357972827632e-05 -9.9162375508997412e-04 1.3661896387458094e-06  1.2543683090958664e-05 -1.0060848918708933e-03 1.3658928508388403e-06  1.2722752580381402e-05 -1.0205442371351498e-03 1.3658638106573706e-06  1.2901999254958320e-05 -1.0350023142784437e-03 1.3660681976646103e-06  1.3081363337863076e-05 -1.0494590466051479e-03 1.3660889780306528e-06  1.3260663006052274e-05 -1.0639148161444743e-03 1.3657604555133303e-06  1.3439976555467670e-05 -1.0783696336058766e-03 1.3656858317456305e-06  1.3619131361603574e-05 -1.0928238018825037e-03 1.3656985246018388e-06  1.3798386517745787e-05 -1.1072776689454251e-03 1.3657669179298900e-06  1.3977671533071013e-05 -1.1217313095955824e-03 1.3657967210707497e-06  1.4156914965917069e-05 -1.1361848381029171e-03 1.3658303616079298e-06  1.4336212768138790e-05 -1.1506383702844590e-03 1.3658258684845381e-06  1.4559561591045935e-05 -1.1722755295276474e-03 -1.5680815173556292e-06  1.4592290170353057e-05 -1.1720567118762748e-03 7.5140026535219061e-07  1.4622107260011872e-05 -1.1718376388520956e-03 2.8830023658133970e-06  1.4650572704368467e-05 -1.1716184704709297e-03 4.9255893787990529e-06  1.4677518790470490e-05 -1.1713990077044233e-03 6.8659820907940968e-06  1.4702394623984033e-05 -1.1711790887208773e-03 8.6705322217117534e-06  1.4726651006715386e-05 -1.1709590929262687e-03 1.0434906018566641e-05  1.4749222925272162e-05 -1.1707388714682139e-03 1.2091556727696785e-05  1.4769775677035868e-05 -1.1705184384369870e-03 1.3614226381956448e-05  1.4788919351800349e-05 -1.1702978760214284e-03 1.5048204258154323e-05  1.4806729474263033e-05 -1.1700773561280826e-03 1.6392040620783306e-05  1.4822253032140257e-05 -1.1698567107312678e-03 1.7589167538906336e-05  1.4836047173888876e-05 -1.1696360401295190e-03 1.8671749140580910e-05  1.4847946921799310e-05 -1.1694151588826443e-03 1.9631166735997332e-05  1.4857664217773833e-05 -1.1691942607644995e-03 2.0446681325615857e-05  1.4865066208018093e-05 -1.1689732554046623e-03 2.1113149825648954e-05  1.4871133600172997e-05 -1.1687522982844272e-03 2.1689923508890009e-05  1.4875787882258878e-05 -1.1685313191674334e-03 2.2175212232929182e-05  1.4878516722970858e-05 -1.1683103385527267e-03 2.2535398673319245e-05  1.4879374662567878e-05 -1.1680893420157740e-03 2.2772776924670365e-05  1.4879622264804460e-05 -1.1678683403660429e-03 2.2969580653249166e-05  1.4877847281585878e-05 -1.1676473714090586e-03 2.3034907641613530e-05  1.4875084621061828e-05 -1.1674264472455219e-03 2.3036097959373185e-05  1.4870925863861813e-05 -1.1672055492744681e-03 2.2947003935753296e-05  1.4864484343708026e-05 -1.1669847121633268e-03 2.2708606373855499e-05  1.4855846224560871e-05 -1.1667639965374857e-03 2.2325464865320778e-05  1.4844211318394844e-05 -1.1665434466189503e-03 2.1745725440165634e-05  1.4830511808897996e-05 -1.1663230579995706e-03 2.1031698190476160e-05  1.4813704520768727e-05 -1.1661029247695570e-03 2.0112660125611837e-05  1.4792477329991835e-05 -1.1658832246633991e-03 1.8902369311138775e-05  1.4765177401445503e-05 -1.1656642219820229e-03 1.7291061737927753e-05  1.4727232880880807e-05 -1.1654469192395858e-03 1.4979775525018417e-05  1.4667904533799980e-05 -1.1652347141775637e-03 1.1257912478360091e-05  -7.4050382613578346e-08 -4.4037870717792414e-08 -3.7006880853918051e-08  -1.4590405039342492e-07 -3.4696786256409537e-07 -1.0990088278348187e-07  -1.7284103535699037e-07 -8.1531120959590023e-07 -2.6559257014947203e-07  -1.3913616280989163e-07 -2.1733710165628463e-06 -5.0717116343464087e-07  -2.7246639721324327e-08 -3.6855705052324931e-06 -7.2083920108385632e-07  1.6852194895693150e-08 -5.3737357920806563e-06 -7.8752147030852205e-07  5.9177791188885897e-08 -8.4228520043767978e-06 -8.8486844031236337e-07  1.2025155694737643e-07 -1.1627489346163102e-05 -9.9412814027370107e-07  8.5320642400709647e-08 -1.5303908880147120e-05 -1.0863509081940714e-06  1.6006055372899662e-07 -1.9482553180476257e-05 -1.2746567257660599e-06  3.3392853818509175e-07 -2.4322695226529590e-05 -1.5166839904844285e-06  5.0219526564514965e-07 -2.9364491897409092e-05 -1.7595205803214477e-06  6.9367765984479401e-07 -3.4637138068036842e-05 -1.9854413164121133e-06  6.8159026418389848e-07 -4.1276498251249608e-05 -2.0130884199794177e-06  8.0760430991825631e-07 -4.8294689707329554e-05 -2.1136130121901603e-06  8.7335797336624030e-07 -5.5400063091388964e-05 -2.2714945227643998e-06  9.7563216801240039e-07 -6.3165909255021911e-05 -2.4078075427178720e-06  1.0654196838126715e-06 -7.1531394931589781e-05 -2.6243838534849471e-06  1.1577843758309452e-06 -8.0405201740996603e-05 -2.8514273435593824e-06  1.2978747276026028e-06 -8.9757176847022244e-05 -2.8982315161639017e-06  1.3644567650778305e-06 -9.9412207164940885e-05 -2.9422353255081724e-06  1.4774477461209716e-06 -1.0917961462685961e-04 -3.0249727300232780e-06  1.6103039966683581e-06 -1.1917820531612377e-04 -3.0817530996938615e-06  1.7218832582617008e-06 -1.2951319007965711e-04 -3.1759740248335820e-06  1.8700284929882519e-06 -1.4010075527198156e-04 -3.2820758430788677e-06  1.9834998798048065e-06 -1.5097682040805509e-04 -3.2880400298345574e-06  2.1220174696136829e-06 -1.6217744615404031e-04 -3.4470636585948963e-06  2.2425482575508562e-06 -1.7374845044806230e-04 -3.5152996052833509e-06  2.3852678188375023e-06 -1.8543537750007044e-04 -3.5854806781599311e-06  2.5647601843878572e-06 -1.9735206615631172e-04 -3.6653675941113747e-06  2.7219374776411688e-06 -2.0931607127679585e-04 -3.7025672918586745e-06  2.8660287877783980e-06 -2.2143919208272831e-04 -3.7083371987975202e-06  3.0213138900765226e-06 -2.3378852372876689e-04 -3.7736423582535194e-06  3.1640856620000773e-06 -2.4632790102123789e-04 -3.8329762511672195e-06  3.3103436974378914e-06 -2.5908000475705008e-04 -3.8309767963097696e-06  3.4750109743924947e-06 -2.7190457822057554e-04 -3.9036122940731922e-06  3.6517962716278907e-06 -2.8476352276940280e-04 -3.9059466743992234e-06  3.8221579969797479e-06 -2.9792593655312920e-04 -3.9408361643635067e-06  3.9722298454833657e-06 -3.1119523411838419e-04 -3.9959555061009626e-06  4.1398779037202219e-06 -3.2456958485688897e-04 -4.0306019220009343e-06  4.2933299023578268e-06 -3.3820928524798562e-04 -4.0699121500131502e-06  4.4574033870845911e-06 -3.5186108056141515e-04 -4.0908054005576433e-06  4.6199324262135549e-06 -3.6559683512388122e-04 -4.1171902630987658e-06  4.7888565610083063e-06 -3.7937210715258970e-04 -4.1186325585198804e-06  4.9597795246768812e-06 -3.9324754128923999e-04 -4.1240163890802791e-06  5.1278099457499708e-06 -4.0715597586844988e-04 -4.1426287523925702e-06  5.2895106922717495e-06 -4.2116521821936747e-04 -4.1582309340955496e-06  5.4625201377742282e-06 -4.3518684047648198e-04 -4.1670383267211456e-06  5.6237371609091164e-06 -4.4929613709615671e-04 -4.1924369302577977e-06  5.8074702736828508e-06 -4.6348355045849275e-04 -4.2041211344422282e-06  5.9809510454666137e-06 -4.7771338307860247e-04 -4.2141969054333432e-06  6.1435500205926718e-06 -4.9199001439391714e-04 -4.2307458391226232e-06  6.3178261957580108e-06 -5.0628877720836313e-04 -4.2423155584203705e-06  6.4957007641750810e-06 -5.2063239056809884e-04 -4.2403951240908246e-06  6.6682397124146709e-06 -5.3501850962417127e-04 -4.2510612458244381e-06  6.8428008970642035e-06 -5.4942427454495910e-04 -4.2564162772569890e-06  7.0227120003823422e-06 -5.6384518275799189e-04 -4.2580567459904001e-06  7.1934429969162009e-06 -5.7835015619780690e-04 -4.2632164558631412e-06  7.3647321218680325e-06 -5.9285104768372918e-04 -4.2614392187018051e-06  7.5397992267109467e-06 -6.0734038555920343e-04 -4.2652679942397139e-06  7.7182667398896684e-06 -6.2183006035760008e-04 -4.2673101073522464e-06  7.8976568001046168e-06 -6.3633419554490439e-04 -4.2669824770576252e-06  8.0769148541375298e-06 -6.5083808138649449e-04 -4.2650243424262467e-06  8.2565651238831247e-06 -6.6534636790642834e-04 -4.2632749900311907e-06  8.4345646658045751e-06 -6.7985842798589280e-04 -4.2624587692342208e-06  8.6140535361496930e-06 -6.9438223122620865e-04 -4.2628539110927820e-06  8.7937053945770158e-06 -7.0890322418674576e-04 -4.2614737584625398e-06  8.9722914972803624e-06 -7.2343604241936830e-04 -4.2602676504262175e-06  9.1503685705822782e-06 -7.3797723444745896e-04 -4.2597267900147122e-06  9.3284899036420485e-06 -7.5252213745592733e-04 -4.2561658856337473e-06  9.5049460552735994e-06 -7.6706946540547110e-04 -4.2554489060066815e-06  9.6850293612205061e-06 -7.8159826770371889e-04 -4.2525862240308699e-06  9.8653828656688219e-06 -7.9612482365707814e-04 -4.2509921056220738e-06  1.0044293629754885e-05 -8.1064891327765432e-04 -4.2477894095344619e-06  1.0222006563408032e-05 -8.2517263286469044e-04 -4.2435473746429414e-06  1.0401052714350930e-05 -8.3969069793563087e-04 -4.2405365440717597e-06  1.0579613757680977e-05 -8.5420109310662556e-04 -4.2371592375431922e-06  1.0758959204436033e-05 -8.6871042962502704e-04 -4.2352576670579419e-06  1.0938673823344270e-05 -8.8320890954728961e-04 -4.2329246895658848e-06  1.1118595523280108e-05 -8.9769889962761106e-04 -4.2306817259389450e-06  1.1297733580209568e-05 -9.1218806304568876e-04 -4.2279486922933341e-06  1.1476938710574910e-05 -9.2667597517054963e-04 -4.2261462259116856e-06  1.1656517999625866e-05 -9.4115788869381773e-04 -4.2239591919777983e-06  1.1835289788132126e-05 -9.5563678009681174e-04 -4.2220822819395842e-06  1.2013823450762499e-05 -9.7011642074712576e-04 -4.2194046982877749e-06  1.2192140086309760e-05 -9.8458642194605684e-04 -4.2172768193246170e-06  1.2371763231143188e-05 -9.9904984480726159e-04 -4.2156743990575162e-06  1.2551029608064648e-05 -1.0135107997466363e-03 -4.2148164652411314e-06  1.2730161746193613e-05 -1.0279709175196254e-03 -4.2140626149315483e-06  1.2909399435157684e-05 -1.0424284690195810e-03 -4.2129191030968856e-06  1.3088663834584019e-05 -1.0568822804700435e-03 -4.2117059939102842e-06  1.3267924347354403e-05 -1.0713346213329718e-03 -4.2112301616200544e-06  1.3447039197301729e-05 -1.0857867467181136e-03 -4.2108372018840730e-06  1.3626112150312238e-05 -1.1002383339329971e-03 -4.2104648163195906e-06  1.3805245548395372e-05 -1.1146895312291771e-03 -4.2102533470296618e-06  1.3984365082411697e-05 -1.1291405537614007e-03 -4.2101531647954409e-06  1.4163528298778642e-05 -1.1435915671113518e-03 -4.2100992337554753e-06  1.4342709099852266e-05 -1.1580425790627721e-03 -4.2100625118124552e-06  1.4370408480751282e-05 -1.1652462151790172e-03 -8.2892527677414451e-06  1.4304638774839434e-05 -1.1654564788655837e-03 -1.2778888402788952e-05  1.4266730421419024e-05 -1.1656737795599156e-03 -1.5442425097990526e-05  1.4238481473799293e-05 -1.1658926570058900e-03 -1.7473314774322974e-05  1.4216672069707482e-05 -1.1661123131185571e-03 -1.9080334608164287e-05  1.4199233183306447e-05 -1.1663323897657856e-03 -2.0399592217014956e-05  1.4184793811619956e-05 -1.1665527364403275e-03 -2.1522524789761341e-05  1.4174075592694102e-05 -1.1667733401971717e-03 -2.2399781652155013e-05  1.4166104198835515e-05 -1.1669940915273154e-03 -2.3098396638129677e-05  1.4160469982535581e-05 -1.1672149369893361e-03 -2.3641782789498077e-05  1.4157034714929333e-05 -1.1674358570837385e-03 -2.4041324894744008e-05  1.4155254084379742e-05 -1.1676568075131082e-03 -2.4332186961874341e-05  1.4155481445311133e-05 -1.1678777748421131e-03 -2.4491501