<?xml version="1.0"?>
<VTKFile type="UnstructuredGrid"  version="0.1"  >
<UnstructuredGrid>
<Piece  NumberOfPoints="10958" NumberOfCells="41820">
<Points>
<DataArray  type="Float64"  NumberOfComponents="3"  format="ascii">1 0.04955 0  3.483770450905253e-06 0.04864772283650545 0  3.483770450905253e-06 0.04864772283650545 2.95  1 0.04955 2.95  0.9705745651584323 0.0546328692740541 0  0.9410403409854562 0.05904933268918263 0  0.9114506936029688 0.06307764259166145 0  0.8818365365778597 0.06692205633990718 0  0.852195425756178 0.07055529100758898 0  0.8225213484314672 0.07390813590379837 0  0.7928382076274137 0.07717791230068967 0  0.7631311412584285 0.08022519712851128 0  0.7333970986343074 0.08299595685799818 0  0.7036468593402103 0.08558339900696151 0  0.6738808305098906 0.08798485813956464 0  0.6440919092681797 0.09008334865923617 0  0.6142870835549664 0.09194561288677774 0  0.5844675933514397 0.09355367701932085 0  0.5546335832429207 0.09486496269114339 0  0.5247876530181904 0.095868659884793 0  0.4949363523436856 0.09668736484019783 0  0.4650802095563029 0.09731740696399105 0  0.4352195800941197 0.09768943189876603 0  0.405357042743103 0.09780828360274334 0  0.3754942534896675 0.09784351677757946 0  0.3456322298379585 0.09760772238205492 0  0.3157719755355017 0.09723970101506153 0  0.2859142869264596 0.09668561931752166 0  0.2560638915081948 0.09582390318294828 0  0.2262236143831659 0.09466390431188013 0  0.1964020995566796 0.09309886371899376 0  0.1665963941161298 0.09125714074218327 0  0.1368197180220126 0.08899319787719009 0  0.1070946678970156 0.08612945256268216 0  0.07746305623222323 0.08244010579101241 0  0.04805012948181673 0.07731042839253653 0  0.01932358256457366 0.06928107812002522 0  3.483770450905253e-06 0.04864772283650545 0.02979797979797999  3.483770450905253e-06 0.04864772283650545 0.05959595959595966  3.483770450905253e-06 0.04864772283650545 0.08939393939393965  3.483770450905253e-06 0.04864772283650545 0.1191919191919193  3.483770450905253e-06 0.04864772283650545 0.1489898989898993  3.483770450905253e-06 0.04864772283650545 0.178787878787879  3.483770450905253e-06 0.04864772283650545 0.2085858585858589  3.483770450905253e-06 0.04864772283650545 0.2383838383838386  3.483770450905253e-06 0.04864772283650545 0.2681818181818186  3.483770450905253e-06 0.04864772283650545 0.2979797979797986  3.483770450905253e-06 0.04864772283650545 0.3277777777777782  3.483770450905253e-06 0.04864772283650545 0.3575757575757582  3.483770450905253e-06 0.04864772283650545 0.3873737373737379  3.483770450905253e-06 0.04864772283650545 0.4171717171717179  3.483770450905253e-06 0.04864772283650545 0.4469696969696979  3.483770450905253e-06 0.04864772283650545 0.4767676767676775  3.483770450905253e-06 0.04864772283650545 0.5065656565656572  3.483770450905253e-06 0.04864772283650545 0.5363636363636372  3.483770450905253e-06 0.04864772283650545 0.5661616161616169  3.483770450905254e-06 0.04864772283650545 0.5959595959595969  3.483770450905253e-06 0.04864772283650545 0.6257575757575765  3.483770450905254e-06 0.04864772283650545 0.6555555555555564  3.483770450905253e-06 0.04864772283650545 0.6853535353535362  3.483770450905253e-06 0.04864772283650545 0.7151515151515158  3.483770450905253e-06 0.04864772283650545 0.7449494949494958  3.483770450905253e-06 0.04864772283650545 0.7747474747474755  3.483770450905253e-06 0.04864772283650545 0.8045454545454552  3.483770450905253e-06 0.04864772283650545 0.8343434343434351  3.483770450905253e-06 0.04864772283650545 0.8641414141414151  3.483770450905253e-06 0.04864772283650545 0.8939393939393945  3.483770450905254e-06 0.04864772283650545 0.9237373737373745  3.483770450905253e-06 0.04864772283650545 0.9535353535353545  3.483770450905254e-06 0.04864772283650545 0.9833333333333341  3.483770450905253e-06 0.04864772283650545 1.013131313131314  3.483770450905254e-06 0.04864772283650545 1.042929292929294  3.483770450905253e-06 0.04864772283650545 1.072727272727274  3.483770450905254e-06 0.04864772283650545 1.102525252525254  3.483770450905253e-06 0.04864772283650545 1.132323232323234  3.483770450905254e-06 0.04864772283650545 1.162121212121214  3.483770450905253e-06 0.04864772283650545 1.191919191919194  3.483770450905254e-06 0.04864772283650545 1.221717171717174  3.483770450905253e-06 0.04864772283650545 1.251515151515153  3.483770450905254e-06 0.04864772283650545 1.281313131313133  3.483770450905253e-06 0.04864772283650545 1.311111111111113  3.483770450905253e-06 0.04864772283650545 1.340909090909093  3.483770450905253e-06 0.04864772283650545 1.370707070707073  3.483770450905253e-06 0.04864772283650545 1.400505050505053  3.483770450905253e-06 0.04864772283650545 1.430303030303033  3.483770450905253e-06 0.04864772283650545 1.460101010101013  3.483770450905253e-06 0.04864772283650545 1.489898989898993  3.483770450905253e-06 0.04864772283650545 1.519696969696973  3.483770450905253e-06 0.04864772283650545 1.549494949494953  3.483770450905253e-06 0.04864772283650545 1.579292929292933  3.483770450905253e-06 0.04864772283650545 1.609090909090913  3.483770450905253e-06 0.04864772283650545 1.638888888888893  3.483770450905254e-06 0.04864772283650545 1.668686868686872  3.483770450905253e-06 0.04864772283650545 1.698484848484852  3.483770450905254e-06 0.04864772283650545 1.728282828282832  3.483770450905253e-06 0.04864772283650545 1.758080808080812  3.483770450905254e-06 0.04864772283650545 1.787878787878792  3.483770450905253e-06 0.04864772283650545 1.817676767676772  3.483770450905254e-06 0.04864772283650545 1.847474747474752  3.483770450905253e-06 0.04864772283650545 1.877272727272732  3.483770450905254e-06 0.04864772283650545 1.907070707070712  3.483770450905253e-06 0.04864772283650545 1.936868686868691  3.483770450905253e-06 0.04864772283650545 1.966666666666671  3.483770450905253e-06 0.04864772283650545 1.996464646464651  3.483770450905253e-06 0.04864772283650545 2.02626262626263  3.483770450905253e-06 0.04864772283650545 2.056060606060611  3.483770450905253e-06 0.04864772283650545 2.08585858585859  3.483770450905254e-06 0.04864772283650545 2.11565656565657  3.483770450905253e-06 0.04864772283650545 2.14545454545455  3.483770450905253e-06 0.04864772283650545 2.175252525252529  3.483770450905253e-06 0.04864772283650545 2.205050505050508  3.483770450905253e-06 0.04864772283650545 2.234848484848488  3.483770450905253e-06 0.04864772283650545 2.264646464646468  3.483770450905253e-06 0.04864772283650545 2.294444444444448  3.483770450905253e-06 0.04864772283650545 2.324242424242427  3.483770450905253e-06 0.04864772283650545 2.354040404040407  3.483770450905253e-06 0.04864772283650545 2.383838383838387  3.483770450905254e-06 0.04864772283650545 2.413636363636366  3.483770450905253e-06 0.04864772283650545 2.443434343434346  3.483770450905253e-06 0.04864772283650545 2.473232323232326  3.483770450905253e-06 0.04864772283650545 2.503030303030305  3.483770450905253e-06 0.04864772283650545 2.532828282828285  3.483770450905253e-06 0.04864772283650545 2.562626262626264  3.483770450905253e-06 0.04864772283650545 2.592424242424244  3.483770450905254e-06 0.04864772283650545 2.622222222222224  3.483770450905253e-06 0.04864772283650545 2.652020202020203  3.483770450905253e-06 0.04864772283650545 2.681818181818183  3.483770450905253e-06 0.04864772283650545 2.711616161616163  3.483770450905253e-06 0.04864772283650545 2.741414141414142  3.483770450905254e-06 0.04864772283650545 2.771212121212122  3.483770450905253e-06 0.04864772283650545 2.801010101010102  3.483770450905253e-06 0.04864772283650545 2.830808080808081  3.483770450905253e-06 0.04864772283650545 2.860606060606061  3.483770450905253e-06 0.04864772283650545 2.890404040404041  3.483770450905253e-06 0.04864772283650545 2.92020202020202  0.9705745651584323 0.0546328692740541 2.95  0.9410403409854562 0.05904933268918263 2.95  0.9114506936029688 0.06307764259166145 2.95  0.8818365365778597 0.06692205633990718 2.95  0.852195425756178 0.07055529100758898 2.95  0.8225213484314672 0.07390813590379837 2.95  0.7928382076274137 0.07717791230068967 2.95  0.7631311412584285 0.08022519712851128 2.95  0.7333970986343074 0.08299595685799818 2.95  0.7036468593402103 0.08558339900696151 2.95  0.6738808305098906 0.08798485813956464 2.95  0.6440919092681797 0.09008334865923617 2.95  0.6142870835549664 0.09194561288677774 2.95  0.5844675933514397 0.09355367701932085 2.95  0.5546335832429207 0.09486496269114339 2.95  0.5247876530181904 0.095868659884793 2.95  0.4949363523436856 0.09668736484019783 2.95  0.4650802095563029 0.09731740696399105 2.95  0.4352195800941197 0.09768943189876603 2.95  0.405357042743103 0.09780828360274334 2.95  0.3754942534896675 0.09784351677757946 2.95  0.3456322298379585 0.09760772238205492 2.95  0.3157719755355017 0.09723970101506153 2.95  0.2859142869264596 0.09668561931752166 2.95  0.2560638915081948 0.09582390318294828 2.95  0.2262236143831659 0.09466390431188013 2.95  0.1964020995566796 0.09309886371899376 2.95  0.1665963941161298 0.09125714074218327 2.95  0.1368197180220126 0.08899319787719009 2.95  0.1070946678970156 0.08612945256268216 2.95  0.07746305623222323 0.08244010579101241 2.95  0.04805012948181673 0.07731042839253653 2.95  0.01932358256457366 0.06928107812002522 2.95  1 0.04955 0.02979797979797999  1 0.04955 0.05959595959595966  1 0.04955 0.08939393939393965  1 0.04955 0.1191919191919193  1 0.04955 0.1489898989898993  1 0.04955 0.178787878787879  1 0.04955 0.2085858585858589  1 0.04955 0.2383838383838386  1 0.04955 0.2681818181818186  1 0.04955 0.2979797979797986  1 0.04955 0.3277777777777782  1 0.04955 0.3575757575757582  1 0.04955 0.3873737373737379  1 0.04955 0.4171717171717179  1 0.04955 0.4469696969696979  1 0.04955 0.4767676767676775  1 0.04955 0.5065656565656572  1 0.04955 0.5363636363636372  1 0.04955 0.5661616161616169  1 0.04955 0.5959595959595969  1 0.04955 0.6257575757575765  1 0.04955 0.6555555555555564  1 0.04955 0.6853535353535362  1 0.04955 0.7151515151515158  1 0.04955 0.7449494949494958  1 0.04955 0.7747474747474755 
[...]
<PointData  Vectors="Displacement"> 
<DataArray  type="Float64"  Name="Displacement"  NumberOfComponents="3" format="ascii">0.0000000000000000e+00 0.0000000000000000e+00 0.0000000000000000e+00  0.0000000000000000e+00 0.0000000000000000e+00 0.0000000000000000e+00  1.0455770894829622e-04 -7.9206628047495224e-03 1.1452768069122041e-05  1.0469883703247322e-04 -7.9530219467702414e-03 -3.3682924591566280e-05  0.0000000000000000e+00 0.0000000000000000e+00 0.0000000000000000e+00  0.0000000000000000e+00 0.0000000000000000e+00 0.0000000000000000e+00  0.0000000000000000e+00 0.0000000000000000e+00 0.0000000000000000e+00  0.0000000000000000e+00 0.0000000000000000e+00 0.0000000000000000e+00  0.0000000000000000e+00 0.0000000000000000e+00 0.0000000000000000e+00  0.0000000000000000e+00 0.0000000000000000e+00 0.0000000000000000e+00  0.0000000000000000e+00 0.0000000000000000e+00 0.0000000000000000e+00  0.0000000000000000e+00 0.0000000000000000e+00 0.0000000000000000e+00  0.0000000000000000e+00 0.0000000000000000e+00 0.0000000000000000e+00  0.0000000000000000e+00 0.0000000000000000e+00 0.0000000000000000e+00  0.0000000000000000e+00 0.0000000000000000e+00 0.0000000000000000e+00  0.0000000000000000e+00 0.0000000000000000e+00 0.0000000000000000e+00  0.0000000000000000e+00 0.0000000000000000e+00 0.0000000000000000e+00  0.0000000000000000e+00 0.0000000000000000e+00 0.0000000000000000e+00  0.0000000000000000e+00 0.0000000000000000e+00 0.0000000000000000e+00  0.0000000000000000e+00 0.0000000000000000e+00 0.0000000000000000e+00  0.0000000000000000e+00 0.0000000000000000e+00 0.0000000000000000e+00  0.0000000000000000e+00 0.0000000000000000e+00 0.0000000000000000e+00  0.0000000000000000e+00 0.0000000000000000e+00 0.0000000000000000e+00  0.0000000000000000e+00 0.0000000000000000e+00 0.0000000000000000e+00  0.0000000000000000e+00 0.0000000000000000e+00 0.0000000000000000e+00  0.0000000000000000e+00 0.0000000000000000e+00 0.0000000000000000e+00  0.0000000000000000e+00 0.0000000000000000e+00 0.0000000000000000e+00  0.0000000000000000e+00 0.0000000000000000e+00 0.0000000000000000e+00  0.0000000000000000e+00 0.0000000000000000e+00 0.0000000000000000e+00  0.0000000000000000e+00 0.0000000000000000e+00 0.0000000000000000e+00  0.0000000000000000e+00 0.0000000000000000e+00 0.0000000000000000e+00  0.0000000000000000e+00 0.0000000000000000e+00 0.0000000000000000e+00  0.0000000000000000e+00 0.0000000000000000e+00 0.0000000000000000e+00  0.0000000000000000e+00 0.0000000000000000e+00 0.0000000000000000e+00  0.0000000000000000e+00 0.0000000000000000e+00 0.0000000000000000e+00  0.0000000000000000e+00 0.0000000000000000e+00 0.0000000000000000e+00  0.0000000000000000e+00 0.0000000000000000e+00 0.0000000000000000e+00  -6.5229599367025421e-08 1.5059011600003134e-06 1.9051178183690093e-07  1.7380090443523513e-07 8.4794790630899486e-07 7.8953135292838023e-07  4.4224251925642266e-07 -2.0731761123821394e-06 1.4773413950509003e-06  7.3653395030749390e-07 -7.9025341933639497e-06 1.6873556436235336e-06  7.0835168138547752e-07 -1.6594929721103138e-05 1.9508264104172318e-06  1.0843891781766848e-06 -2.8426247341547585e-05 2.1404042186310964e-06  1.2648889974174068e-06 -4.3664617345902433e-05 2.1914048533096837e-06  1.4347194591992979e-06 -6.1403205240987937e-05 2.8224025884053204e-06  1.8248495347576322e-06 -8.2097225901265491e-05 3.0721961533800746e-06  2.0117161287651272e-06 -1.0599947946143057e-04 3.2734326065098848e-06  2.5575294724313090e-06 -1.3247670123937833e-04 3.5804814874780842e-06  3.1356634406418640e-06 -1.6169827373344926e-04 3.6671045831856449e-06  3.3348845174251543e-06 -1.9399473721284292e-04 3.9657913349330495e-06  3.8710680602028354e-06 -2.2856834128938416e-04 3.5547749560034470e-06  4.1362819882724600e-06 -2.6572945353204989e-04 4.2080578783807094e-06  4.8531171550814666e-06 -3.0566671124048644e-04 4.1364165255618018e-06  5.3570948504168042e-06 -3.4732255008688322e-04 4.4555133228279415e-06  5.7253078075426653e-06 -3.9252531823787037e-04 4.7640107805789370e-06  6.5799531589759897e-06 -4.3983562948278308e-04 5.1041870439473419e-06  7.1439895972753069e-06 -4.8926156264692965e-04 4.7401612193743326e-06  7.7810702358326652e-06 -5.4033751109510992e-04 5.4628920171314180e-06  8.3968613262130446e-06 -5.9349193001055601e-04 6.1335114576058108e-06  9.5565563442250695e-06 -6.4888647505152231e-04 6.1821634639094830e-06  1.0012176875660020e-05 -7.0605470166329974e-04 6.3201184346922008e-06  1.1075647810235725e-05 -7.6501963654498331e-04 6.4712120157817903e-06  1.1995485245941694e-05 -8.2585252883426150e-04 6.1298253354011712e-06  1.2492883953364006e-05 -8.8917752933478640e-04 6.0822627619603169e-06  1.3157328782291897e-05 -9.5406380226436464e-04 6.6283878124623362e-06  1.4051495133418860e-05 -1.0211930360868292e-03 6.9829574145708254e-06  1.5078257594616585e-05 -1.0898186348562112e-03 7.2584463314421057e-06  1.5923693990390633e-05 -1.1598589290424130e-03 7.4892324275250327e-06  1.6912244232475867e-05 -1.2315005535331314e-03 7.6979437328115544e-06  1.7969467533388019e-05 -1.3049239289999808e-03 7.7640472274847866e-06  1.8979471882651842e-05 -1.3800206741071564e-03 7.5454468397550282e-06  1.9752404910449076e-05 -1.4560927513079711e-03 7.6805502869991864e-06  2.0656617111481558e-05 -1.5337665398038299e-03 8.2031752713097907e-06  2.1933331621099804e-05 -1.6129687025681432e-03 8.3319059124358519e-06  2.3007363931920260e-05 -1.6935766286651477e-03 8.3451518632485277e-06  2.4071367022967692e-05 -1.7755155441939038e-03 8.1763441297706351e-06  2.4966547201432733e-05 -1.8582833330763587e-03 8.4941291973781516e-06  2.6081944408738468e-05 -1.9424036550474727e-03 8.7392621816261397e-06  2.7306819757916797e-05 -2.0282061965186909e-03 8.9937730481850528e-06  2.8281110932990257e-05 -2.1151444722723248e-03 9.1785633412407136e-06  2.9613684689439462e-05 -2.2031947666784971e-03 9.2727533685060410e-06  3.0809007152733547e-05 -2.2924223793211384e-03 9.3040827138174519e-06  3.1930051027395512e-05 -2.3827106105566245e-03 9.3239943198107175e-06  3.3154889195390240e-05 -2.4738305186662855e-03 9.1408000796008671e-06  3.4301229240487950e-05 -2.5659780825048671e-03 9.3577374097485000e-06  3.5434693111067469e-05 -2.6589321171471159e-03 9.4626556624038377e-06  3.6726383308603967e-05 -2.7529166430409176e-03 9.6236190089726649e-06  3.7925029628933001e-05 -2.8479782535733179e-03 9.9359569587355348e-06  3.9206968400183310e-05 -2.9437589277873273e-03 1.0067302856570857e-05  4.0585673453411173e-05 -3.0404522802126703e-03 9.8876133854178792e-06  4.1708517456960691e-05 -3.1377439719483613e-03 9.9765894223667706e-06  4.3096327779392254e-05 -3.2358805994362259e-03 9.9969040682545570e-06  4.4288407825501892e-05 -3.3347438824106786e-03 1.0089111544111612e-05  4.5574182566615743e-05 -3.4341362621975497e-03 1.0217716668787931e-05  4.6838592130820804e-05 -3.5342398221453559e-03 1.0497291051834085e-05  4.8264414462900724e-05 -3.6349449418703172e-03 1.0570885522884348e-05  4.9630084723305517e-05 -3.7361825154989788e-03 1.0439445584908253e-05  5.0849808891297159e-05 -3.8380131141405329e-03 1.0495765593920059e-05  5.2140276303683626e-05 -3.9404936303319626e-03 1.0769192979018700e-05  5.3630325015548437e-05 -4.0435389211063858e-03 1.0770335792209929e-05  5.5014304974204221e-05 -4.1470996993345317e-03 1.0698170397157045e-05  5.6311451071953582e-05 -4.2511130110146076e-03 1.0716345011156168e-05  5.7659292199052279e-05 -4.3554977337571660e-03 1.0903200388418292e-05  5.9002328893519734e-05 -4.4603245615277331e-03 1.1008553795852780e-05  6.0462200677294143e-05 -4.5654424036679804e-03 1.1026657116994230e-05  6.1793010780558178e-05 -4.6710101164216134e-03 1.1076647984740067e-05  6.3251001370267298e-05 -4.7769098602026732e-03 1.1097269105971773e-05  6.4664695465351028e-05 -4.8831529775644963e-03 1.1024849166704777e-05  6.6013173940282296e-05 -4.9897721746475863e-03 1.1048149310882756e-05  6.7395679125414488e-05 -5.0966094874813975e-03 1.1184742343456178e-05  6.8781711446369866e-05 -5.2036954274455056e-03 1.1222978221493341e-05  7.0225086184027511e-05 -5.3110778450772842e-03 1.1263796155581634e-05  7.1637866678563150e-05 -5.4186386656876777e-03 1.1260036310323892e-05  7.3049566851627389e-05 -5.5263955597132991e-03 1.1280011553782589e-05  7.4492091621829702e-05 -5.6343572085654691e-03 1.1258988612552278e-05  7.5905958154412283e-05 -5.7424877002350454e-03 1.1282306056137820e-05  7.7312048400853076e-05 -5.8507818376552544e-03 1.1323703477204528e-05  7.8720625919229063e-05 -5.9591727115395152e-03 1.1371116311796357e-05  8.0174168058535792e-05 -6.0677151926451451e-03 1.1389915582479869e-05  8.1588329511331936e-05 -6.1763422199941631e-03 1.1393956022938246e-05  8.3029657579998490e-05 -6.2850673194768938e-03 1.1402278317713697e-05  8.4465191335101895e-05 -6.3938685763475171e-03 1.1400500531533702e-05  8.5905184704116122e-05 -6.5027487459140684e-03 1.1396906952233866e-05  8.7330603328693529e-05 -6.6116838903954277e-03 1.1417822370583033e-05  8.8755123329508349e-05 -6.7206722002262215e-03 1.1433712609496469e-05  9.0198686551775574e-05 -6.8297026162789680e-03 1.1436908364425786e-05  9.1639945899527089e-05 -6.9387556766482596e-03 1.1434629848128059e-05  9.3076387864496679e-05 -7.0478349533635541e-03 1.1441077068889376e-05  9.4505502334428168e-05 -7.1569276188847676e-03 1.1450107959810122e-05  9.5941164000876459e-05 -7.2660336270912434e-03 1.1452529803237009e-05  9.7380007130494918e-05 -7.3751464330674785e-03 1.1453191058155139e-05  9.8817485640033246e-05 -7.4842561754759687e-03 1.1453477925873973e-05  1.0025164831501574e-04 -7.5933643654061559e-03 1.1452239128678996e-05  1.0168918068035689e-04 -7.7024693137042952e-03 1.1452558379235432e-05  1.0312368350047126e-04 -7.8115690108204764e-03 1.1452630109674393e-05  1.0484034820612662e-04 -7.9521960426058077e-03 -1.3616512722372327e-05  1.0496783001655761e-04 -7.9513462394691040e-03 4.0082400784627044e-06  1.0508961049779579e-04 -7.9504678150142723e-03 2.0211175237665490e-05  1.0520628494251144e-04 -7.9495696275805362e-03 3.5740541568126160e-05  1.0531519707886311e-04 -7.9486663179339986e-03 5.0494354008233834e-05  1.0541460881286491e-04 -7.9477666565727946e-03 6.4223499234640117e-05  1.0551164219959022e-04 -7.9468648639968355e-03 7.7645083583418865e-05  1.0560394647855113e-04 -7.9459624482492199e-03 9.0250306385675279e-05  1.0568635287622685e-04 -7.9450580674052234e-03 1.0184357194792355e-04  1.0576722484836762e-04 -7.9441521143702194e-03 1.1275777162401027e-04  1.0584004245350359e-04 -7.9432343522055273e-03 1.2299295263596227e-04  1.0590726042119074e-04 -7.9423103240827304e-03 1.3211271683061923e-04  1.0596609340991661e-04 -7.9413772390010268e-03 1.4037159666961273e-04  1.0602018977217653e-04 -7.9404464705301464e-03 1.4769581126922239e-04  1.0606406093025156e-04 -7.9395038269644454e-03 1.5393679271603493e-04  1.0610374757002476e-04 -7.9385572506685299e-03 1.5904653403636624e-04  1.0613566461229688e-04 -7.9376010421518487e-03 1.6347922448397913e-04  1.0616337146775829e-04 -7.9366365855552731e-03 1.6722174744855821e-04  1.0618515271901783e-04 -7.9356624791495235e-03 1.7001738468390453e-04  1.0619849241487172e-04 -7.9346818895068075e-03 1.7188740587814483e-04  1.0620830567940199e-04 -7.9336961064186591e-03 1.7345378852254346e-04  1.0621008571609819e-04 -7.9327013292083970e-03 1.7402836488624723e-04  1.0620859923199586e-04 -7.9316971994286903e-03 1.7411765636066235e-04  1.0620254550436336e-04 -7.9306847358805374e-03 1.7352704522564098e-04  1.0618388492492233e-04 -7.9296664904238250e-03 1.7181193244228640e-04  1.0615389952503238e-04 -7.9286403098793971e-03 1.6900437805139579e-04  1.0610964920811158e-04 -7.9276071428680175e-03 1.6471461806132171e-04  1.0605518884801480e-04 -7.9265673274345610e-03 1.5940999227888187e-04  1.0598270936068570e-04 -7.9255214095186061e-03 1.5255998322642552e-04  1.0588660665357637e-04 -7.9244711917001633e-03 1.4351045442170549e-04  1.0575885888865483e-04 -7.9234227204038818e-03 1.3143343115144140e-04  1.0557966450978726e-04 -7.9223760066643601e-03 1.1407401529628809e-04  1.0529424516852127e-04 -7.9213522703132852e-03 8.6062336202443195e-05  -3.5734986360630246e-07 9.0135839210173513e-07 -3.4818101852210956e-08  -6.5153393285583762e-07 4.4652944007260358e-07 -2.9085241666472230e-07  -7.5711779296309613e-07 -7.7992895885250663e-07 -9.7273792764179545e-07  -5.5965559582761406e-07 -6.1873827119673488e-06 -2.1524396103111210e-06  2.6605785191153493e-08 -1.2339717130484837e-05 -3.2367725403113037e-06  2.6264085472390702e-07 -1.9376558206057754e-05 -3.5792865727178136e-06  4.8915862608772388e-07 -3.3448708876193241e-05 -4.0825023326735046e-06  8.1369175647817360e-07 -4.8342811339207419e-05 -4.6535178614447244e-06  6.2076833805686119e-07 -6.5719073115966798e-05 -5.1396173477496930e-06  1.0201668121751212e-06 -8.5838652012909579e-05 -6.1701154022225818e-06  1.9793211926581641e-06 -1.0953688932492980e-04 -7.5397776579550897e-06  2.9161376105818983e-06 -1.3435073809447889e-04 -8.9398962454037895e-06  3.9973531790422836e-06 -1.6044498446947064e-04 -1.0274138778181877e-05  3.8949033213831700e-06 -1.9446546436648353e-04 -1.0447750105626476e-05  4.6073891166867523e-06 -2.3075429700968099e-04 -1.1063083516003135e-05  4.9968100669407707e-06 -2.6736114381412226e-04 -1.2018397792362019e-05  5.5868127548453964e-06 -3.0812647994209825e-04 -1.2879413781790866e-05  6.0992059177065967e-06 -3.5260751056938235e-04 -1.4274451923986661e-05  6.6168701869422185e-06 -4.0036563915813134e-04 -1.5796303625923312e-05  7.4624594442631604e-06 -4.5128942415460560e-04 -1.6165754972069221e-05  7.7883342544237973e-06 -5.0428775497937380e-04 -1.6493333052384523e-05  8.4466321935237272e-06 -5.5810714854240989e-04 -1.7099488579574608e-05  9.2444207521066701e-06 -6.1345673499114592e-04 -1.7531714501980624e-05  9.9053274425494026e-06 -6.7119403944042571e-04 -1.8238581339893529e-05  1.0823539897042002e-05 -7.3085062487119018e-04 -1.9060840366003189e-05  1.1476164404683985e-05 -7.9254359374763877e-04 -1.9129039524648280e-05  1.2317407830515287e-05 -8.5682599580053803e-04 -2.0431119637466107e-05  1.3021479173939894e-05 -9.2415634448845976e-04 -2.1010879808220612e-05  1.3895609434753744e-05 -9.9241268502106160e-04 -2.1648544431129800e-05  1.5119890923592423e-05 -1.0625700447008904e-03 -2.2413955102017332e-05  1.6130264233203327e-05 -1.1331597645740004e-03 -2.2789025814289947e-05  1.7015913228361109e-05 -1.2052294556446211e-03 -2.2872002228048848e-05  1.8057669758243796e-05 -1.2791419672057223e-03 -2.3530716522505794e-05  1.8949211733346806e-05 -1.3549830207477383e-03 -2.4113324717339525e-05  1.9823828651956114e-05 -1.4328803218397021e-03 -2.4126083218023668e-05  2.0936661584946732e-05 -1.5113780141123188e-03 -2.4893444822360736e-05  2.2128273981478722e-05 -1.5902855572086912e-03 -2.4977327465122609e-05  2.3299806919352861e-05 -1.6720547186696523e-03 -2.5429926195285512e-05  2.4274095320173489e-05 -1.7551454556829901e-03 -2.6047783294351269e-05  2.5445865553051481e-05 -1.8392648590266755e-03 -2.6525873405023958e-05  2.6476504293719880e-05 -1.9261566350323167e-03 -2.7076419649559510e-05  2.7571427695299225e-05 -2.0138233977380544e-03 -2.7367151767440233e-05  2.8720331542030313e-05 -2.1024294576853291e-03 -2.7797799091347801e-05  2.9879678375315919e-05 -2.1914618969662903e-03 -2.7913201670678931e-05  3.1060676966104231e-05 -2.2821941669585628e-03 -2.8045441547159113e-05  3.2251653360031605e-05 -2.3734684101682237e-03 -2.8392688521940459e-05  3.3310436971363415e-05 -2.4661320765739119e-03 -2.8630091213244137e-05  3.4523977606841245e-05 -2.5591630550843517e-03 -2.8829475370556146e-05  3.5642758460378177e-05 -2.6530691206176505e-03 -2.9257008859013398e-05  3.7041049228843793e-05 -2.7484090842342076e-03 -2.9558492405976800e-05  3.8268369361257685e-05 -2.8445294119218076e-03 -2.9789801336680557e-05  3.9443897715974265e-05 -2.9414543407513317e-03 -3.0208203017346914e-05  4.0697861965792403e-05 -3.0393058148921888e-03 -3.0502839435373873e-05  4.1983496049759599e-05 -3.1379739491122862e-03 -3.0536272321249027e-05  4.3211178574931559e-05 -3.2372823642839070e-03 -3.0835981831536082e-05  4.4514264014877317e-05 -3.3374295527258432e-03 -3.1070820118305697e-05  4.5904610153225287e-05 -3.4377658331144643e-03 -3.1244971060927592e-05  4.7154032807075595e-05 -3.5394965904984254e-03 -3.1436406071502184e-05  4.8385540666128823e-05 -3.6421365634169145e-03 -3.1601565460273228e-05  4.9645509463294763e-05 -3.7451639069748491e-03 -3.1858766295810605e-05  5.0958352863442386e-05 -3.8484722288466191e-03 -3.2013304264621175e-05  5.2329351367705134e-05 -3.9522415909078318e-03 -3.2150802236952476e-05  5.3742211428129583e-05 -4.0560383932022040e-03 -3.2290983592395145e-05  5.5114063304330136e-05 -4.1602541358514459e-03 -3.2344420302071129e-05  5.6504805547904436e-05 -4.2647202762119011e-03 -3.2504482169459815e-05  5.7845504888413269e-05 -4.3701309081834129e-03 -3.2585818199697577e-05  5.9245098009330530e-05 -4.4756307209746866e-03 -3.2674956829743034e-05  6.0628643695470965e-05 -4.5816062123980724e-03 -3.2792523734334629e-05  6.1982199008521255e-05 -4.6881685585722947e-03 -3.2922749821655342e-05  6.3393482538400846e-05 -4.7950398838425496e-03 -3.3005945771100453e-05  6.4699009079609730e-05 -4.9023798313102673e-03 -3.3155084640838294e-05  6.6141924973029136e-05 -5.0096891675796822e-03 -3.3219920844375905e-05  6.7540385140988675e-05 -5.1173964531965209e-03 -3.3265776578326995e-05  6.8943478059305094e-05 -5.2251623730891006e-03 -3.3343054613725640e-05  7.0323920010791180e-05 -5.3333872018867913e-03 -3.3436589234897274e-05  7.1721581995906600e-05 -5.4416792777488791e-03 -3.3504726704853238e-05  7.3147085982485329e-05 -5.5502036686427992e-03 -3.3522531470206022e-05  7.4551063488570871e-05 -5.6588031304363930e-03 -3.3541891121804022e-05  7.5962475572886643e-05 -5.7676527613846661e-03 -3.3583881969720903e-05  7.7375943313099491e-05 -5.8766235091600137e-03 -3.3613759518359581e-05  7.8802106565122512e-05 -5.9856069550101613e-03 -3.3637717859383953e-05  8.0222032962762991e-05 -6.0946960844622689e-03 -3.3671350341982621e-05  8.1648500528121257e-05 -6.2038142442779809e-03 -3.3700947137281472e-05  8.3097809932840760e-05 -6.3130300139636261e-03 -3.3695578591218002e-05  8.4542191507837967e-05 -6.4222841330078108e-03 -3.3703447894277370e-05  8.5962826627828323e-05 -6.5316389548457227e-03 -3.3708303977999452e-05  8.7388049147682991e-05 -6.6410328217115346e-03 -3.3721244023306083e-05  8.8825060507487480e-05 -6.7504111909708472e-03 -3.3721660661391626e-05  9.0270873096227587e-05 -6.8597937583620896e-03 -3.3718047880084749e-05  9.1699983235390734e-05 -6.9692278245666204e-03 -3.3723758040877047e-05  9.3138058041313050e-05 -7.0786169951826275e-03 -3.3711532569331859e-05  9.4585907213131986e-05 -7.1879611693782004e-03 -3.3711715195167659e-05  9.6030450589852201e-05 -7.2972963335435764e-03 -3.3707596927317716e-05  9.7473286135155697e-05 -7.4066320754445341e-03 -3.3698875089724223e-05  9.8919238124994487e-05 -7.5159351758828149e-03 -3.3693742545075860e-05  1.0035842617740400e-04 -7.6252283857756332e-03 -3.3682997153100230e-05  1.0180047447098146e-04 -7.7345230820711460e-03 -3.3679487945383806e-05  1.0324721922108366e-04 -7.8437758018045107e-03 -3.3681868476765382e-05  1.0385638305975434e-04 -7.9214078205275800e-03 -6.1477915872509581e-05  1.0353988343399543e-04 -7.9224228594323085e-03 -9.5439327918025787e-05  1.0336096715135842e-04 -7.9234683942867069e-03 -1.1561807135379706e-04  1.0322949071690679e-04 -7.9245174012449356e-03 -1.3102049493263063e-04  1.0313200079999997e-04 -7.9255654437265666e-03 -1.4322635464090929e-04  1.0306000215634396e-04 -7.9266102176865777e-03 -1.5325673573765130e-04  1.0300344261952803e-04 -7.9276491091035250e-03 -1.6180519348636969e-04  1.0296833224910051e-04 -7.9286807484948933e-03 -1.6850280977490870e-04  1.0294540364987258e-04 -7.9297066622758070e-03 -1.7385348575213371e-04  1.0293844470463710e-04 -7.9307252703535534e-03 -1.7803290315544228e-04  1.0294201498280148e-04 -7.9317351330588180e-03 -1.8112757688239998e-04  1.0295327476524811e-04 -7.9327384781066636e-03 -1.8340821977787903e-04  1.0297392861800499e-04 -7.9337338593895700e-03 -1.8469576177