<?xml version="1.0"?>
<VTKFile type="UnstructuredGrid"  version="0.1"  >
<UnstructuredGrid>
<Piece  NumberOfPoints="10958" NumberOfCells="41820">
<Points>
<DataArray  type="Float64"  NumberOfComponents="3"  format="ascii">1 0.04955 0  3.483770450905253e-06 0.04864772283650545 0  3.483770450905253e-06 0.04864772283650545 2.95  1 0.04955 2.95  0.9705745651584323 0.0546328692740541 0  0.9410403409854562 0.05904933268918263 0  0.9114506936029688 0.06307764259166145 0  0.8818365365778597 0.06692205633990718 0  0.852195425756178 0.07055529100758898 0  0.8225213484314672 0.07390813590379837 0  0.7928382076274137 0.07717791230068967 0  0.7631311412584285 0.08022519712851128 0  0.7333970986343074 0.08299595685799818 0  0.7036468593402103 0.08558339900696151 0  0.6738808305098906 0.08798485813956464 0  0.6440919092681797 0.09008334865923617 0  0.6142870835549664 0.09194561288677774 0  0.5844675933514397 0.09355367701932085 0  0.5546335832429207 0.09486496269114339 0  0.5247876530181904 0.095868659884793 0  0.4949363523436856 0.09668736484019783 0  0.4650802095563029 0.09731740696399105 0  0.4352195800941197 0.09768943189876603 0  0.405357042743103 0.09780828360274334 0  0.3754942534896675 0.09784351677757946 0  0.3456322298379585 0.09760772238205492 0  0.3157719755355017 0.09723970101506153 0  0.2859142869264596 0.09668561931752166 0  0.2560638915081948 0.09582390318294828 0  0.2262236143831659 0.09466390431188013 0  0.1964020995566796 0.09309886371899376 0  0.1665963941161298 0.09125714074218327 0  0.1368197180220126 0.08899319787719009 0  0.1070946678970156 0.08612945256268216 0  0.07746305623222323 0.08244010579101241 0  0.04805012948181673 0.07731042839253653 0  0.01932358256457366 0.06928107812002522 0  3.483770450905253e-06 0.04864772283650545 0.02979797979797999  3.483770450905253e-06 0.04864772283650545 0.05959595959595966  3.483770450905253e-06 0.04864772283650545 0.08939393939393965  3.483770450905253e-06 0.04864772283650545 0.1191919191919193  3.483770450905253e-06 0.04864772283650545 0.1489898989898993  3.483770450905253e-06 0.04864772283650545 0.178787878787879  3.483770450905253e-06 0.04864772283650545 0.2085858585858589  3.483770450905253e-06 0.04864772283650545 0.2383838383838386  3.483770450905253e-06 0.04864772283650545 0.2681818181818186  3.483770450905253e-06 0.04864772283650545 0.2979797979797986  3.483770450905253e-06 0.04864772283650545 0.3277777777777782  3.483770450905253e-06 0.04864772283650545 0.3575757575757582  3.483770450905253e-06 0.04864772283650545 0.3873737373737379  3.483770450905253e-06 0.04864772283650545 0.4171717171717179  3.483770450905253e-06 0.04864772283650545 0.4469696969696979  3.483770450905253e-06 0.04864772283650545 0.4767676767676775  3.483770450905253e-06 0.04864772283650545 0.5065656565656572  3.483770450905253e-06 0.04864772283650545 0.5363636363636372  3.483770450905253e-06 0.04864772283650545 0.5661616161616169  3.483770450905254e-06 0.04864772283650545 0.5959595959595969  3.483770450905253e-06 0.04864772283650545 0.6257575757575765  3.483770450905254e-06 0.04864772283650545 0.6555555555555564  3.483770450905253e-06 0.04864772283650545 0.6853535353535362  3.483770450905253e-06 0.04864772283650545 0.7151515151515158  3.483770450905253e-06 0.04864772283650545 0.7449494949494958  3.483770450905253e-06 0.04864772283650545 0.7747474747474755  3.483770450905253e-06 0.04864772283650545 0.8045454545454552  3.483770450905253e-06 0.04864772283650545 0.8343434343434351  3.483770450905253e-06 0.04864772283650545 0.8641414141414151  3.483770450905253e-06 0.04864772283650545 0.8939393939393945  3.483770450905254e-06 0.04864772283650545 0.9237373737373745  3.483770450905253e-06 0.04864772283650545 0.9535353535353545  3.483770450905254e-06 0.04864772283650545 0.9833333333333341  3.483770450905253e-06 0.04864772283650545 1.013131313131314  3.483770450905254e-06 0.04864772283650545 1.042929292929294  3.483770450905253e-06 0.04864772283650545 1.072727272727274  3.483770450905254e-06 0.04864772283650545 1.102525252525254  3.483770450905253e-06 0.04864772283650545 1.132323232323234  3.483770450905254e-06 0.04864772283650545 1.162121212121214  3.483770450905253e-06 0.04864772283650545 1.191919191919194  3.483770450905254e-06 0.04864772283650545 1.221717171717174  3.483770450905253e-06 0.04864772283650545 1.251515151515153  3.483770450905254e-06 0.04864772283650545 1.281313131313133  3.483770450905253e-06 0.04864772283650545 1.311111111111113  3.483770450905253e-06 0.04864772283650545 1.340909090909093  3.483770450905253e-06 0.04864772283650545 1.370707070707073  3.483770450905253e-06 0.04864772283650545 1.400505050505053  3.483770450905253e-06 0.04864772283650545 1.430303030303033  3.483770450905253e-06 0.04864772283650545 1.460101010101013  3.483770450905253e-06 0.04864772283650545 1.489898989898993  3.483770450905253e-06 0.04864772283650545 1.519696969696973  3.483770450905253e-06 0.04864772283650545 1.549494949494953  3.483770450905253e-06 0.04864772283650545 1.579292929292933  3.483770450905253e-06 0.04864772283650545 1.609090909090913  3.483770450905253e-06 0.04864772283650545 1.638888888888893  3.483770450905254e-06 0.04864772283650545 1.668686868686872  3.483770450905253e-06 0.04864772283650545 1.698484848484852  3.483770450905254e-06 0.04864772283650545 1.728282828282832  3.483770450905253e-06 0.04864772283650545 1.758080808080812  3.483770450905254e-06 0.04864772283650545 1.787878787878792  3.483770450905253e-06 0.04864772283650545 1.817676767676772  3.483770450905254e-06 0.04864772283650545 1.847474747474752  3.483770450905253e-06 0.04864772283650545 1.877272727272732  3.483770450905254e-06 0.04864772283650545 1.907070707070712  3.483770450905253e-06 0.04864772283650545 1.936868686868691  3.483770450905253e-06 0.04864772283650545 1.966666666666671  3.483770450905253e-06 0.04864772283650545 1.996464646464651  3.483770450905253e-06 0.04864772283650545 2.02626262626263  3.483770450905253e-06 0.04864772283650545 2.056060606060611  3.483770450905253e-06 0.04864772283650545 2.08585858585859  3.483770450905254e-06 0.04864772283650545 2.11565656565657  3.483770450905253e-06 0.04864772283650545 2.14545454545455  3.483770450905253e-06 0.04864772283650545 2.175252525252529  3.483770450905253e-06 0.04864772283650545 2.205050505050508  3.483770450905253e-06 0.04864772283650545 2.234848484848488  3.483770450905253e-06 0.04864772283650545 2.264646464646468  3.483770450905253e-06 0.04864772283650545 2.294444444444448  3.483770450905253e-06 0.04864772283650545 2.324242424242427  3.483770450905253e-06 0.04864772283650545 2.354040404040407  3.483770450905253e-06 0.04864772283650545 2.383838383838387  3.483770450905254e-06 0.04864772283650545 2.413636363636366  3.483770450905253e-06 0.04864772283650545 2.443434343434346  3.483770450905253e-06 0.04864772283650545 2.473232323232326  3.483770450905253e-06 0.04864772283650545 2.503030303030305  3.483770450905253e-06 0.04864772283650545 2.532828282828285  3.483770450905253e-06 0.04864772283650545 2.562626262626264  3.483770450905253e-06 0.04864772283650545 2.592424242424244  3.483770450905254e-06 0.04864772283650545 2.622222222222224  3.483770450905253e-06 0.04864772283650545 2.652020202020203  3.483770450905253e-06 0.04864772283650545 2.681818181818183  3.483770450905253e-06 0.04864772283650545 2.711616161616163  3.483770450905253e-06 0.04864772283650545 2.741414141414142  3.483770450905254e-06 0.04864772283650545 2.771212121212122  3.483770450905253e-06 0.04864772283650545 2.801010101010102  3.483770450905253e-06 0.04864772283650545 2.830808080808081  3.483770450905253e-06 0.04864772283650545 2.860606060606061  3.483770450905253e-06 0.04864772283650545 2.890404040404041  3.483770450905253e-06 0.04864772283650545 2.92020202020202  0.9705745651584323 0.0546328692740541 2.95  0.9410403409854562 0.05904933268918263 2.95  0.9114506936029688 0.06307764259166145 2.95  0.8818365365778597 0.06692205633990718 2.95  0.852195425756178 0.07055529100758898 2.95  0.8225213484314672 0.07390813590379837 2.95  0.7928382076274137 0.07717791230068967 2.95  0.7631311412584285 0.08022519712851128 2.95  0.7333970986343074 0.08299595685799818 2.95  0.7036468593402103 0.08558339900696151 2.95  0.6738808305098906 0.08798485813956464 2.95  0.6440919092681797 0.09008334865923617 2.95  0.6142870835549664 0.09194561288677774 2.95  0.5844675933514397 0.09355367701932085 2.95  0.5546335832429207 0.09486496269114339 2.95  0.5247876530181904 0.095868659884793 2.95  0.4949363523436856 0.09668736484019783 2.95  0.4650802095563029 0.09731740696399105 2.95  0.4352195800941197 0.09768943189876603 2.95  0.405357042743103 0.09780828360274334 2.95  0.3754942534896675 0.09784351677757946 2.95  0.3456322298379585 0.09760772238205492 2.95  0.3157719755355017 0.09723970101506153 2.95  0.2859142869264596 0.09668561931752166 2.95  0.2560638915081948 0.09582390318294828 2.95  0.2262236143831659 0.09466390431188013 2.95  0.1964020995566796 0.09309886371899376 2.95  0.1665963941161298 0.09125714074218327 2.95  0.1368197180220126 0.08899319787719009 2.95  0.1070946678970156 0.08612945256268216 2.95  0.07746305623222323 0.08244010579101241 2.95  0.04805012948181673 0.07731042839253653 2.95  0.01932358256457366 0.06928107812002522 2.95  1 0.04955 0.02979797979797999  1 0.04955 0.05959595959595966  1 0.04955 0.08939393939393965  1 0.04955 0.1191919191919193  1 0.04955 0.1489898989898993  1 0.04955 0.178787878787879  1 0.04955 0.2085858585858589  1 0.04955 0.2383838383838386  1 0.04955 0.2681818181818186  1 0.04955 0.2979797979797986  1 0.04955 0.3277777777777782  1 0.04955 0.3575757575757582  1 0.04955 0.3873737373737379  1 0.04955 0.4171717171717179  1 0.04955 0.4469696969696979  1 0.04955 0.4767676767676775  1 0.04955 0.5065656565656572  1 0.04955 0.5363636363636372  1 0.04955 0.5661616161616169  1 0.04955 0.5959595959595969  1 0.04955 0.6257575757575765  1 0.04955 0.6555555555555564  1 0.04955 0.6853535353535362  1 0.04955 0.7151515151515158  1 0.04955 0.7449494949494958  1 0.04955 0.7747474747474755 
[...]
<PointData  Vectors="Displacement"> 
<DataArray  type="Float64"  Name="Displacement"  NumberOfComponents="3" format="ascii">0.0000000000000000e+00 0.0000000000000000e+00 0.0000000000000000e+00  0.0000000000000000e+00 0.0000000000000000e+00 0.0000000000000000e+00  8.8031678795385729e-05 -6.6808700924833762e-03 9.6015341310591404e-06  8.8148090043372684e-05 -6.7086405015546122e-03 -2.8274240799376198e-05  0.0000000000000000e+00 0.0000000000000000e+00 0.0000000000000000e+00  0.0000000000000000e+00 0.0000000000000000e+00 0.0000000000000000e+00  0.0000000000000000e+00 0.0000000000000000e+00 0.0000000000000000e+00  0.0000000000000000e+00 0.0000000000000000e+00 0.0000000000000000e+00  0.0000000000000000e+00 0.0000000000000000e+00 0.0000000000000000e+00  0.0000000000000000e+00 0.0000000000000000e+00 0.0000000000000000e+00  0.0000000000000000e+00 0.0000000000000000e+00 0.0000000000000000e+00  0.0000000000000000e+00 0.0000000000000000e+00 0.0000000000000000e+00  0.0000000000000000e+00 0.0000000000000000e+00 0.0000000000000000e+00  0.0000000000000000e+00 0.0000000000000000e+00 0.0000000000000000e+00  0.0000000000000000e+00 0.0000000000000000e+00 0.0000000000000000e+00  0.0000000000000000e+00 0.0000000000000000e+00 0.0000000000000000e+00  0.0000000000000000e+00 0.0000000000000000e+00 0.0000000000000000e+00  0.0000000000000000e+00 0.0000000000000000e+00 0.0000000000000000e+00  0.0000000000000000e+00 0.0000000000000000e+00 0.0000000000000000e+00  0.0000000000000000e+00 0.0000000000000000e+00 0.0000000000000000e+00  0.0000000000000000e+00 0.0000000000000000e+00 0.0000000000000000e+00  0.0000000000000000e+00 0.0000000000000000e+00 0.0000000000000000e+00  0.0000000000000000e+00 0.0000000000000000e+00 0.0000000000000000e+00  0.0000000000000000e+00 0.0000000000000000e+00 0.0000000000000000e+00  0.0000000000000000e+00 0.0000000000000000e+00 0.0000000000000000e+00  0.0000000000000000e+00 0.0000000000000000e+00 0.0000000000000000e+00  0.0000000000000000e+00 0.0000000000000000e+00 0.0000000000000000e+00  0.0000000000000000e+00 0.0000000000000000e+00 0.0000000000000000e+00  0.0000000000000000e+00 0.0000000000000000e+00 0.0000000000000000e+00  0.0000000000000000e+00 0.0000000000000000e+00 0.0000000000000000e+00  0.0000000000000000e+00 0.0000000000000000e+00 0.0000000000000000e+00  0.0000000000000000e+00 0.0000000000000000e+00 0.0000000000000000e+00  0.0000000000000000e+00 0.0000000000000000e+00 0.0000000000000000e+00  0.0000000000000000e+00 0.0000000000000000e+00 0.0000000000000000e+00  0.0000000000000000e+00 0.0000000000000000e+00 0.0000000000000000e+00  0.0000000000000000e+00 0.0000000000000000e+00 0.0000000000000000e+00  0.0000000000000000e+00 0.0000000000000000e+00 0.0000000000000000e+00  -5.6635068241914515e-08 1.2741081361754460e-06 1.6037381482955952e-07  1.4701473426654847e-07 6.9582314105101082e-07 6.7092276765541610e-07  3.7508209594080884e-07 -1.8154924594697529e-06 1.2567491425564555e-06  6.2637049796239150e-07 -6.8088810966236290e-06 1.4337635862296700e-06  6.0180765266266756e-07 -1.4243540069046810e-05 1.6570080263520736e-06  9.2162070098533703e-07 -2.4352979743464567e-05 1.8168311394611846e-06  1.0752331680455864e-06 -3.7362909158695355e-05 1.8586689652047917e-06  1.2189644966139990e-06 -5.2500029219898238e-05 2.3945563069114422e-06  1.5506380929975900e-06 -7.0151400294136854e-05 2.6055861165214421e-06  1.7095638633876948e-06 -9.0529093391009525e-05 2.7753162909468024e-06  2.1728579132528750e-06 -1.1309380049535782e-04 3.0347641355595523e-06  2.6635582008482808e-06 -1.3798770144599138e-04 3.1070654502118020e-06  2.8328015307428132e-06 -1.6548969016634828e-04 3.3596961572494738e-06  3.2882989836161035e-06 -1.9492191233085968e-04 3.0109022058848205e-06  3.5130272815563027e-06 -2.2654634346810630e-04 3.5634485039893179e-06  4.1215546146972347e-06 -2.6052096957105721e-04 3.5020091824455721e-06  4.5489103597245238e-06 -2.9595022841959569e-04 3.7718144403738913e-06  4.8618674878008894e-06 -3.3437823862760859e-04 4.0317375827603570e-06  5.5852150334869755e-06 -3.7458666488974195e-04 4.3185650950873907e-06  6.0647544948221956e-06 -4.1658119497613681e-04 4.0109163565834656e-06  6.6043381937390383e-06 -4.5996798375057610e-04 4.6203903014313627e-06  7.1255009633990728e-06 -5.0510798991200661e-04 5.1854726441721688e-06  8.1065842571788531e-06 -5.5213642312269698e-04 5.2255058379836578e-06  8.4936680277736467e-06 -6.0065885237055501e-04 5.3411550942789539e-06  9.3921635541356983e-06 -6.5069383707349660e-04 5.4677165245383652e-06  1.0170870833216187e-05 -7.0230060620153363e-04 5.1801128315923871e-06  1.0593458994546291e-05 -7.5600260241425940e-04 5.1400949570381397e-06  1.1156600337959845e-05 -8.1101632682367263e-04 5.5990865104387994e-06  1.1912206220428028e-05 -8.6791314807136528e-04 5.8962761305448821e-06  1.2779751200826421e-05 -9.2606502739025272e-04 6.1270185160255624e-06  1.3495241330320003e-05 -9.8540255489653304e-04 6.3204357494439169e-06  1.4330187883170896e-05 -1.0460820432024261e-03 6.4945721065155532e-06  1.5222621106696424e-05 -1.1082537281352080e-03 6.5493211117958605e-06  1.6076502978826239e-05 -1.1718255523251863e-03 6.3664569744437190e-06  1.6731213053534168e-05 -1.2362123812374216e-03 6.4791131918250749e-06  1.7494904878654163e-05 -1.3019386072570137e-03 6.9157797410974444e-06  1.8570765995043010e-05 -1.3689419026965851e-03 7.0229773242836415e-06  1.9477565196042268e-05 -1.4371188507837931e-03 7.0340742013901290e-06  2.0375839042471962e-05 -1.5064064366589768e-03 6.8930149853638264e-06  2.1132791097983322e-05 -1.5763841643715664e-03 7.1578395425690977e-06  2.2073649639966808e-05 -1.6474893939031675e-03 7.3622631552651595e-06  2.3105508888765769e-05 -1.7199960132068487e-03 7.5738419336417873e-06  2.3928883951895522e-05 -1.7934473332025685e-03 7.7275468375348984e-06  2.5050223589177482e-05 -1.8678235786675566e-03 7.8054969599826045e-06  2.6057574065069276e-05 -1.9431782591501211e-03 7.8313626848982935e-06  2.7003089696048107e-05 -2.0194136069559758e-03 7.8477187481307007e-06  2.8035357427675644e-05 -2.0963390835217460e-03 7.6957006272405469e-06  2.9001602162519780e-05 -2.1741172661050002e-03 7.8758369755836227e-06  2.9957404126037693e-05 -2.2525639983571239e-03 7.9628109447876832e-06  3.1044639096456755e-05 -2.3318649259541605e-03 8.0964634911141039e-06  3.2054180345035131e-05 -2.4120579559770224e-03 8.3549836757587135e-06  3.3133067221266588e-05 -2.4928461380818610e-03 8.4634577319960189e-06  3.4292575122503471e-05 -2.5743891684598965e-03 8.3147588689027676e-06  3.5239600243109475e-05 -2.6564267115269913e-03 8.3883369071178248e-06  3.6406170501256427e-05 -2.7391623445426837e-03 8.4053520188214647e-06  3.7410864370047179e-05 -2.8224977224047057e-03 8.4814051499166715e-06  3.8492909007976547e-05 -2.9062696668522205e-03 8.5877203841976249e-06  3.9557016527704241e-05 -2.9906280013164920e-03 8.8182067340105928e-06  4.0754432067470340e-05 -3.0754824570549469e-03 8.8787536142423066e-06  4.1902862394778527e-05 -3.1607755173886816e-03 8.7705228819653995e-06  4.2930474779548322e-05 -3.2465567799451153e-03 8.8169099834057971e-06  4.4016105073701496e-05 -3.3328728572917950e-03 9.0419297929773509e-06  4.5266335103802505e-05 -3.4196535065001000e-03 9.0427966875469804e-06  4.6429483065533679e-05 -3.5068578686610033e-03 8.9834307466857483e-06  4.7521056670903120e-05 -3.5944339346014736e-03 8.9985060827514429e-06  4.8654014380343533e-05 -3.6823147318477099e-03 9.1519032310755290e-06  4.9783249081384202e-05 -3.7705583071651100e-03 9.2383633868984600e-06  5.1008411127480011e-05 -3.8590404224295182e-03 9.2532395096166373e-06  5.2127710014780223e-05 -3.9478913859699082e-03 9.2941931236971416e-06  5.3351157917028559e-05 -4.0370143302113628e-03 9.3110268898832791e-06  5.4538534598558915e-05 -4.1264182684924303e-03 9.2517542655607880e-06  5.5672363497962773e-05 -4.2161298406792613e-03 9.2708781665090518e-06  5.6833816631100249e-05 -4.3060197707737533e-03 9.3826968410744261e-06  5.7998411277332607e-05 -4.3961129448050959e-03 9.4139353597779310e-06  5.9209861292554958e-05 -4.4864483373926465e-03 9.4472863578102070e-06  6.0396364072239400e-05 -4.5769291824536507e-03 9.4442699642076080e-06  6.1581831691581739e-05 -4.6675699791340428e-03 9.4605463223578337e-06  6.2792619919148598e-05 -4.7583776903902591e-03 9.4434179574670750e-06  6.3979989107829189e-05 -4.8493229752649787e-03 9.4625419428158549e-06  6.5160930584681179e-05 -4.9404014680447667e-03 9.4963341809387437e-06  6.6343916839834208e-05 -5.0315586280740435e-03 9.5349445791413046e-06  6.7563590323214021e-05 -5.1228391112385094e-03 9.5502599867838546e-06  6.8751192862487366e-05 -5.2141882286491654e-03 9.5535651253716254e-06  6.9960880071303703e-05 -5.3056170214738005e-03 9.5603285219858314e-06  7.1165862729407920e-05 -5.3971076297228754e-03 9.5589003951613758e-06  7.2374519304379292e-05 -5.4886622282549688e-03 9.5560176513070971e-06  7.3571280801443923e-05 -5.5802613925891890e-03 9.5730627054837155e-06  7.4767282674824938e-05 -5.6719036077831787e-03 9.5859857758306953e-06  7.5978790428468863e-05 -5.7635798841854319e-03 9.5885902033394774e-06  7.7188448984715868e-05 -5.8552744228521532e-03 9.5867664652664004e-06  7.8394194668680476e-05 -5.9469901270763877e-03 9.5920355742815922e-06  7.9593944199511432e-05 -6.0387165903152311e-03 9.5993510554531626e-06  8.0799043411081584e-05 -6.1304537768311828e-03 9.6013152886961690e-06  8.2006711977743635e-05 -6.2221963966282209e-03 9.6018576106166388e-06  8.3213284418491069e-05 -6.3139364593839823e-03 9.6021043835783366e-06  8.4417154250264405e-05 -6.4056752128523195e-03 9.6010980778939306e-06  8.5623768598361378e-05 -6.4974112983159828e-03 9.6013649784186595e-06  8.6827918628621441e-05 -6.5891430956907015e-03 9.6014227541545304e-06  8.8270499459102922e-05 -6.7079264168557699e-03 -1.1405285782675607e-05  8.8380551191545847e-05 -6.7071926866824182e-03 3.4108841483040254e-06  8.8485418280731629e-05 -6.7064355361788142e-03 1.7031667709400445e-05  8.8585870093600108e-05 -6.7056622285932461e-03 3.0086149805301027e-05  8.8679706922384762e-05 -6.7048846842744335e-03 4.2488641117570759e-05  8.8765409274650338e-05 -6.7041100363682531e-03 5.4029567807430042e-05  8.8849056887662552e-05 -6.7033336339450810e-03 6.5311998910414927e-05  8.8928536635867253e-05 -6.7025566815315935e-03 7.5908105544497911e-05  8.8999566633837215e-05 -6.7017780857554282e-03 8.5653366605536742e-05  8.9069087778179999e-05 -6.7009981822917092e-03 9.4827895907702509e-05  8.9131789113821065e-05 -6.7002086422522930e-03 1.0343146778691673e-04  8.9189502354483955e-05 -6.6994139619852323e-03 1.1109738267582593e-04  8.9240053859665323e-05 -6.6986118804981632e-03 1.1803936973890582e-04  8.9286393230972983e-05 -6.6978116523169050e-03 1.2419560409349567e-04  8.9323985799482638e-05 -6.6970017229636856e-03 1.2944097609530981e-04  8.9357740697869296e-05 -6.6961885620978748e-03 1.3373534314053463e-04  8.9384908166471682e-05 -6.6953675436707437e-03 1.3746044115436426e-04  8.9408380742965607e-05 -6.6945397850860736e-03 1.4060523217115426e-04  8.9426664500389373e-05 -6.6937041453424958e-03 1.4295393720581938e-04  8.9437714619140709e-05 -6.6928632077581504e-03 1.4452434440571967e-04  8.9445774013957699e-05 -6.6920180277340079e-03 1.4583938666752640e-04  8.9446905757090923e-05 -6.6911655083272056e-03 1.4632049633656876e-04  8.9445190474150160e-05 -6.6903053588814928e-03 1.4639360302445617e-04  8.9439491808574465e-05 -6.6894384078457986e-03 1.4589500446713963e-04  8.9423083034201694e-05 -6.6885667460122398e-03 1.4445085685431627e-04  8.9397026825168902e-05 -6.6876886256049921e-03 1.4208817344716989e-04  8.9358776814846532e-05 -6.6868048293604329e-03 1.3847919829789506e-04  8.9311813712035956e-05 -6.6859156326349849e-03 1.3401694616354068e-04  8.9249570692148810e-05 -6.6850214983540405e-03 1.2825527407050568e-04  8.9167232758573275e-05 -6.6841239308834694e-03 1.2064425560760535e-04  8.9057948745852671e-05 -6.6832279163545321e-03 1.1048771041626466e-04  8.8904717319317431e-05 -6.6823336455578870e-03 9.5889662001659264e-05  8.8660852873270130e-05 -6.6814590651494889e-03 7.2335231636369704e-05  -3.0536022125813005e-07 7.2794855598045536e-07 -3.5180177886859657e-08  -5.5872993881413897e-07 3.0113598513589670e-07 -2.5756638890281284e-07  -6.4987928780601257e-07 -7.8601278293559264e-07 -8.4282977991759590e-07  -4.8247980710902177e-07 -5.4499169983095323e-06 -1.8502989285671434e-06  1.6697354210858454e-08 -1.0750249955198514e-05 -2.7747886476084717e-06  2.1749467416594065e-07 -1.6805020713333442e-05 -3.0666559028114369e-06  4.1019547407083202e-07 -2.8853453268836195e-05 -3.4953539882708633e-06  6.8636065161348965e-07 -4.1601502214347871e-05 -3.9815936374251417e-06  5.2243287569502346e-07 -5.6462662166097164e-05 -4.3953766093997187e-06  8.6222919863418555e-07 -7.3655758446376638e-05 -5.2712674155958503e-06  1.6772286528912548e-06 -9.3892014973121716e-05 -6.4339314580352915e-06  2.4729620496774707e-06 -1.1507611076276081e-04 -7.6216114170180234e-06  3.3908527014419613e-06 -1.3734794707756173e-04 -8.7524087222325812e-06  3.3049774915921424e-06 -1.6634198778629384e-04 -8.8992160992774333e-06  3.9098029201808625e-06 -1.9725755975918624e-04 -9.4200465258221316e-06  4.2398071875982631e-06 -2.2844873778503296e-04 -1.0228978453830690e-05  4.7402757306961866e-06 -2.6315637281342543e-04 -1.0956968450569518e-05  5.1750878023816309e-06 -3.0100775489684474e-04 -1.2135698857946171e-05  5.6146744616590952e-06 -3.4162804752948118e-04 -1.3419895412922871e-05  6.3307601741721393e-06 -3.8492074086621513e-04 -1.3730126172106563e-05  6.6090209302609921e-06 -4.2996285221274123e-04 -1.4005649965667925e-05  7.1672140191661979e-06 -4.7569596858396135e-04 -1.4515735427251784e-05  7.8429425800604195e-06 -5.2272085439201564e-04 -1.4879049043987290e-05  8.4030078104492197e-06 -5.7175698027043577e-04 -1.5473471299330304e-05  9.1798654536950133e-06 -6.2240651967169060e-04 -1.6164294020393335e-05  9.7335123690893437e-06 -6.7477164539595901e-04 -1.6221063894181120e-05  1.0445758330339140e-05 -7.2931057492709752e-04 -1.7313372804526678e-05  1.1042704078652775e-05 -7.8640610147631825e-04 -1.7799256167960932e-05  1.1782571231973842e-05 -8.4427896130523502e-04 -1.8332780699150339e-05  1.2815088481882189e-05 -9.0374615039232910e-04 -1.8972397170742401e-05  1.3668851666462008e-05 -9.6357504739818904e-04 -1.9285464301129515e-05  1.4418374276698848e-05 -1.0246415518221016e-03 -1.9354267419491670e-05  1.5297420621540513e-05 -1.0872542082627588e-03 -1.9904092543202567e-05  1.6051514300486261e-05 -1.1514764292002329e-03 -2.0390678159676858e-05  1.6792421067352641e-05 -1.2174166365084625e-03 -2.0400723240309904e-05  1.7731219972989239e-05 -1.2838603548780306e-03 -2.1040610537752376e-05  1.8736561488486411e-05 -1.3506450388998579e-03 -2.1109528677988822e-05  1.9724334165280194e-05 -1.4198219430865122e-03 -2.1485488929924896e-05  2.0547330775461215e-05 -1.4900975803505215e-03 -2.2000093186946240e-05  2.1534802117271584e-05 -1.5612324131336396e-03 -2.2396827197368552e-05  2.2404432430434784e-05 -1.6346796351930438e-03 -2.2853582142608752e-05  2.3328495052966019e-05 -1.7087619525513098e-03 -2.3094806040679026e-05  2.4296359371101253e-05 -1.7836266387592948e-03 -2.3451292092247666e-05  2.5273916496112573e-05 -1.8588467251062239e-03 -2.3545790586753607e-05  2.6269518985083060e-05 -1.9354732227844585e-03 -2.3654757636727753e-05  2.7272743012732415e-05 -2.0125483339656618e-03 -2.3941720299464527e-05  2.8166858443435139e-05 -2.0907764785596025e-03 -2.4138430080067549e-05  2.9189415719437652e-05 -2.1693068446691785e-03 -2.4302855303257095e-05  3.0132440346001049e-05 -2.2485678146541969e-03 -2.4656620161329275e-05  3.1307826901524769e-05 -2.3290140092624666e-03 -2.4904949833781835e-05  3.2341722299832312e-05 -2.4101052164461289e-03 -2.5095678211719311e-05  3.3331341445725348e-05 -2.4918620265495365e-03 -2.5440376474506084e-05  3.4387140445741687e-05 -2.5743795390800583e-03 -2.5683094690772026e-05  3.5469457486124723e-05 -2.6575721478503062e-03 -2.5710043208459041e-05  3.6503476957960594e-05 -2.7412953833839001e-03 -2.5956740242213043e-05  3.7599442937426412e-05 -2.8257071904830809e-03 -2.6149494029062769e-05  3.8767644692377652e-05 -2.9102761763866673e-03 -2.6292010776959865e-05  3.9819089554923887e-05 -2.9959992722142130e-03 -2.6449283020327914e-05  4.0856005222754680e-05 -3.0824641556641140e-03 -2.6583836113567226e-05  4.1916850610851513e-05 -3.1692432934666242e-03 -2.6794576377136622e-05  4.3021494981324774e-05 -3.2562519595889946e-03 -2.6921150309069955e-05  4.4173800587812162e-05 -3.3436397724659491e-03 -2.7033377628163423e-05  4.5360269412649944e-05 -3.4310499497525555e-03 -2.7147500311145421e-05  4.6513319017785740e-05 -3.5188030641959034e-03 -2.7190819123118352e-05  4.7681495970841504e-05 -3.6067613575492710e-03 -2.7321385675850073e-05  4.8809074451073615e-05 -3.6954931262960181e-03 -2.7387879224148199e-05  4.9984779522596620e-05 -3.7842972163523309e-03 -2.7460422720530968e-05  5.1147185456478330e-05 -3.8734919285655449e-03 -2.7556214448368018e-05  5.2285006461118748e-05 -3.9631674308221853e-03 -2.7662465708358552e-05  5.3469980661512118e-05 -4.0530959423395966e-03 -2.7729760588843353e-05  5.4568283417941619e-05 -4.1434076059622014e-03 -2.7851425837902539e-05  5.5779446961445864e-05 -4.2336909072107753e-03 -2.7903853895785464e-05  5.6954353581253534e-05 -4.3242987957411109e-03 -2.7941011541591022e-05  5.8132781759231248e-05 -4.4149541217403093e-03 -2.8003539141734867e-05  5.9292494107993278e-05 -4.5059841594293571e-03 -2.8079154693146462e-05  6.0466511466482421e-05 -4.5970680898812623e-03 -2.8134252582109185e-05  6.1663178642911860e-05 -4.6883403540767810e-03 -2.8148178924889382e-05  6.2842407985513367e-05 -4.7796737345106978e-03 -2.8163642875959035e-05  6.4027775920466145e-05 -4.8712094516414704e-03 -2.8197511064617585e-05  6.5214860159395861e-05 -4.9628425414234567e-03 -2.8221503148531827e-05  6.6412170314624072e-05 -5.0544858514142126e-03 -2.8240572334606636e-05  6.7604399241462534e-05 -5.1462152430450997e-03 -2.8267711035519141e-05  6.8802037930426889e-05 -5.2379672550923843e-03 -2.8291484319449983e-05  7.0018184435871570e-05 -5.3297984340532206e-03 -2.8286758878316002e-05  7.1230263374048638e-05 -5.4216610675530416e-03 -2.8292699254716307e-05  7.2422910004854286e-05 -5.5136041940547220e-03 -2.8296278689501558e-05  7.3619539919377125e-05 -5.6055780147218938e-03 -2.8306555434984932e-05  7.4825732697306055e-05 -5.6975387316141211e-03 -2.8306739742888005e-05  7.6039088813025126e-05 -5.7895027252040463e-03 -2.8303652272890129e-05  7.7238823820937244e-05 -5.8815083109139410e-03 -2.8308108020137307e-05  7.8445884799037326e-05 -5.9734765542867798e-03 -2.8297903923830928e-05  7.9660927449938713e-05 -6.0654077842596903e-03 -2.8297966704453229e-05  8.0873243994876939e-05 -6.1573316170409845e-03 -2.8294532144850707e-05  8.2084158299936997e-05 -6.2492558241616578e-03 -2.8287341844303907e-05  8.3297628646441515e-05 -6.3411533036665697e-03 -2.8283111963998552e-05  8.4505572699409426e-05 -6.4330426743453295e-03 -2.8274318495166635e-05  8.5715860514127065e-05 -6.5249332572631788e-03 -2.8271442915390417e-05  8.6929986953287387e-05 -6.6167895595044511e-03 -2.8273380355365827e-05  8.7432583766713963e-05 -6.6815065193426516e-03 -5.1717841340063976e-05  8.7162167596431257e-05 -6.6823736443678977e-03 -8.0271061514659324e-05  8.7009169907960334e-05 -6.6832669519798164e-03 -9.7235684242429264e-05  8.6896668598499796e-05 -6.6841633812951854e-03 -1.1018436502668320e-04  8.6813092227533265e-05 -6.6850591641369420e-03 -1.2044528141576224e-04  8.6751127376655227e-05 -6.6859523539285039e-03 -1.2887712083691871e-04  8.6702315736457769e-05 -6.6868407884036500e-03 -1.3606294861330333e-04  8.6671696654849216e-05 -6.6877233468019609e-03 -1.4169248911720272e-04  8.6651524667522137e-05 -6.6886012558468703e-03 -1.4618947635427462e-04  8.6644819045457290e-05 -6.6894732153604678e-03 -1.4970164992536114e-04  8.6647111520087949e-05 -6.6903380462419934e-03 -1.5230173845789057e-04  8.6655984155880206e-05 -6.6911975596764218e-03 -1.5421723175672482e-04  8.6672893197832062e-05 -6.6920505720993780e-03 -1.5529772213