<?xml version="1.0"?>
<VTKFile type="UnstructuredGrid"  version="0.1"  >
<UnstructuredGrid>
<Piece  NumberOfPoints="10958" NumberOfCells="41820">
<Points>
<DataArray  type="Float64"  NumberOfComponents="3"  format="ascii">1 0.04955 0  3.483770450905253e-06 0.04864772283650545 0  3.483770450905253e-06 0.04864772283650545 2.95  1 0.04955 2.95  0.9705745651584323 0.0546328692740541 0  0.9410403409854562 0.05904933268918263 0  0.9114506936029688 0.06307764259166145 0  0.8818365365778597 0.06692205633990718 0  0.852195425756178 0.07055529100758898 0  0.8225213484314672 0.07390813590379837 0  0.7928382076274137 0.07717791230068967 0  0.7631311412584285 0.08022519712851128 0  0.7333970986343074 0.08299595685799818 0  0.7036468593402103 0.08558339900696151 0  0.6738808305098906 0.08798485813956464 0  0.6440919092681797 0.09008334865923617 0  0.6142870835549664 0.09194561288677774 0  0.5844675933514397 0.09355367701932085 0  0.5546335832429207 0.09486496269114339 0  0.5247876530181904 0.095868659884793 0  0.4949363523436856 0.09668736484019783 0  0.4650802095563029 0.09731740696399105 0  0.4352195800941197 0.09768943189876603 0  0.405357042743103 0.09780828360274334 0  0.3754942534896675 0.09784351677757946 0  0.3456322298379585 0.09760772238205492 0  0.3157719755355017 0.09723970101506153 0  0.2859142869264596 0.09668561931752166 0  0.2560638915081948 0.09582390318294828 0  0.2262236143831659 0.09466390431188013 0  0.1964020995566796 0.09309886371899376 0  0.1665963941161298 0.09125714074218327 0  0.1368197180220126 0.08899319787719009 0  0.1070946678970156 0.08612945256268216 0  0.07746305623222323 0.08244010579101241 0  0.04805012948181673 0.07731042839253653 0  0.01932358256457366 0.06928107812002522 0  3.483770450905253e-06 0.04864772283650545 0.02979797979797999  3.483770450905253e-06 0.04864772283650545 0.05959595959595966  3.483770450905253e-06 0.04864772283650545 0.08939393939393965  3.483770450905253e-06 0.04864772283650545 0.1191919191919193  3.483770450905253e-06 0.04864772283650545 0.1489898989898993  3.483770450905253e-06 0.04864772283650545 0.178787878787879  3.483770450905253e-06 0.04864772283650545 0.2085858585858589  3.483770450905253e-06 0.04864772283650545 0.2383838383838386  3.483770450905253e-06 0.04864772283650545 0.2681818181818186  3.483770450905253e-06 0.04864772283650545 0.2979797979797986  3.483770450905253e-06 0.04864772283650545 0.3277777777777782  3.483770450905253e-06 0.04864772283650545 0.3575757575757582  3.483770450905253e-06 0.04864772283650545 0.3873737373737379  3.483770450905253e-06 0.04864772283650545 0.4171717171717179  3.483770450905253e-06 0.04864772283650545 0.4469696969696979  3.483770450905253e-06 0.04864772283650545 0.4767676767676775  3.483770450905253e-06 0.04864772283650545 0.5065656565656572  3.483770450905253e-06 0.04864772283650545 0.5363636363636372  3.483770450905253e-06 0.04864772283650545 0.5661616161616169  3.483770450905254e-06 0.04864772283650545 0.5959595959595969  3.483770450905253e-06 0.04864772283650545 0.6257575757575765  3.483770450905254e-06 0.04864772283650545 0.6555555555555564  3.483770450905253e-06 0.04864772283650545 0.6853535353535362  3.483770450905253e-06 0.04864772283650545 0.7151515151515158  3.483770450905253e-06 0.04864772283650545 0.7449494949494958  3.483770450905253e-06 0.04864772283650545 0.7747474747474755  3.483770450905253e-06 0.04864772283650545 0.8045454545454552  3.483770450905253e-06 0.04864772283650545 0.8343434343434351  3.483770450905253e-06 0.04864772283650545 0.8641414141414151  3.483770450905253e-06 0.04864772283650545 0.8939393939393945  3.483770450905254e-06 0.04864772283650545 0.9237373737373745  3.483770450905253e-06 0.04864772283650545 0.9535353535353545  3.483770450905254e-06 0.04864772283650545 0.9833333333333341  3.483770450905253e-06 0.04864772283650545 1.013131313131314  3.483770450905254e-06 0.04864772283650545 1.042929292929294  3.483770450905253e-06 0.04864772283650545 1.072727272727274  3.483770450905254e-06 0.04864772283650545 1.102525252525254  3.483770450905253e-06 0.04864772283650545 1.132323232323234  3.483770450905254e-06 0.04864772283650545 1.162121212121214  3.483770450905253e-06 0.04864772283650545 1.191919191919194  3.483770450905254e-06 0.04864772283650545 1.221717171717174  3.483770450905253e-06 0.04864772283650545 1.251515151515153  3.483770450905254e-06 0.04864772283650545 1.281313131313133  3.483770450905253e-06 0.04864772283650545 1.311111111111113  3.483770450905253e-06 0.04864772283650545 1.340909090909093  3.483770450905253e-06 0.04864772283650545 1.370707070707073  3.483770450905253e-06 0.04864772283650545 1.400505050505053  3.483770450905253e-06 0.04864772283650545 1.430303030303033  3.483770450905253e-06 0.04864772283650545 1.460101010101013  3.483770450905253e-06 0.04864772283650545 1.489898989898993  3.483770450905253e-06 0.04864772283650545 1.519696969696973  3.483770450905253e-06 0.04864772283650545 1.549494949494953  3.483770450905253e-06 0.04864772283650545 1.579292929292933  3.483770450905253e-06 0.04864772283650545 1.609090909090913  3.483770450905253e-06 0.04864772283650545 1.638888888888893  3.483770450905254e-06 0.04864772283650545 1.668686868686872  3.483770450905253e-06 0.04864772283650545 1.698484848484852  3.483770450905254e-06 0.04864772283650545 1.728282828282832  3.483770450905253e-06 0.04864772283650545 1.758080808080812  3.483770450905254e-06 0.04864772283650545 1.787878787878792  3.483770450905253e-06 0.04864772283650545 1.817676767676772  3.483770450905254e-06 0.04864772283650545 1.847474747474752  3.483770450905253e-06 0.04864772283650545 1.877272727272732  3.483770450905254e-06 0.04864772283650545 1.907070707070712  3.483770450905253e-06 0.04864772283650545 1.936868686868691  3.483770450905253e-06 0.04864772283650545 1.966666666666671  3.483770450905253e-06 0.04864772283650545 1.996464646464651  3.483770450905253e-06 0.04864772283650545 2.02626262626263  3.483770450905253e-06 0.04864772283650545 2.056060606060611  3.483770450905253e-06 0.04864772283650545 2.08585858585859  3.483770450905254e-06 0.04864772283650545 2.11565656565657  3.483770450905253e-06 0.04864772283650545 2.14545454545455  3.483770450905253e-06 0.04864772283650545 2.175252525252529  3.483770450905253e-06 0.04864772283650545 2.205050505050508  3.483770450905253e-06 0.04864772283650545 2.234848484848488  3.483770450905253e-06 0.04864772283650545 2.264646464646468  3.483770450905253e-06 0.04864772283650545 2.294444444444448  3.483770450905253e-06 0.04864772283650545 2.324242424242427  3.483770450905253e-06 0.04864772283650545 2.354040404040407  3.483770450905253e-06 0.04864772283650545 2.383838383838387  3.483770450905254e-06 0.04864772283650545 2.413636363636366  3.483770450905253e-06 0.04864772283650545 2.443434343434346  3.483770450905253e-06 0.04864772283650545 2.473232323232326  3.483770450905253e-06 0.04864772283650545 2.503030303030305  3.483770450905253e-06 0.04864772283650545 2.532828282828285  3.483770450905253e-06 0.04864772283650545 2.562626262626264  3.483770450905253e-06 0.04864772283650545 2.592424242424244  3.483770450905254e-06 0.04864772283650545 2.622222222222224  3.483770450905253e-06 0.04864772283650545 2.652020202020203  3.483770450905253e-06 0.04864772283650545 2.681818181818183  3.483770450905253e-06 0.04864772283650545 2.711616161616163  3.483770450905253e-06 0.04864772283650545 2.741414141414142  3.483770450905254e-06 0.04864772283650545 2.771212121212122  3.483770450905253e-06 0.04864772283650545 2.801010101010102  3.483770450905253e-06 0.04864772283650545 2.830808080808081  3.483770450905253e-06 0.04864772283650545 2.860606060606061  3.483770450905253e-06 0.04864772283650545 2.890404040404041  3.483770450905253e-06 0.04864772283650545 2.92020202020202  0.9705745651584323 0.0546328692740541 2.95  0.9410403409854562 0.05904933268918263 2.95  0.9114506936029688 0.06307764259166145 2.95  0.8818365365778597 0.06692205633990718 2.95  0.852195425756178 0.07055529100758898 2.95  0.8225213484314672 0.07390813590379837 2.95  0.7928382076274137 0.07717791230068967 2.95  0.7631311412584285 0.08022519712851128 2.95  0.7333970986343074 0.08299595685799818 2.95  0.7036468593402103 0.08558339900696151 2.95  0.6738808305098906 0.08798485813956464 2.95  0.6440919092681797 0.09008334865923617 2.95  0.6142870835549664 0.09194561288677774 2.95  0.5844675933514397 0.09355367701932085 2.95  0.5546335832429207 0.09486496269114339 2.95  0.5247876530181904 0.095868659884793 2.95  0.4949363523436856 0.09668736484019783 2.95  0.4650802095563029 0.09731740696399105 2.95  0.4352195800941197 0.09768943189876603 2.95  0.405357042743103 0.09780828360274334 2.95  0.3754942534896675 0.09784351677757946 2.95  0.3456322298379585 0.09760772238205492 2.95  0.3157719755355017 0.09723970101506153 2.95  0.2859142869264596 0.09668561931752166 2.95  0.2560638915081948 0.09582390318294828 2.95  0.2262236143831659 0.09466390431188013 2.95  0.1964020995566796 0.09309886371899376 2.95  0.1665963941161298 0.09125714074218327 2.95  0.1368197180220126 0.08899319787719009 2.95  0.1070946678970156 0.08612945256268216 2.95  0.07746305623222323 0.08244010579101241 2.95  0.04805012948181673 0.07731042839253653 2.95  0.01932358256457366 0.06928107812002522 2.95  1 0.04955 0.02979797979797999  1 0.04955 0.05959595959595966  1 0.04955 0.08939393939393965  1 0.04955 0.1191919191919193  1 0.04955 0.1489898989898993  1 0.04955 0.178787878787879  1 0.04955 0.2085858585858589  1 0.04955 0.2383838383838386  1 0.04955 0.2681818181818186  1 0.04955 0.2979797979797986  1 0.04955 0.3277777777777782  1 0.04955 0.3575757575757582  1 0.04955 0.3873737373737379  1 0.04955 0.4171717171717179  1 0.04955 0.4469696969696979  1 0.04955 0.4767676767676775  1 0.04955 0.5065656565656572  1 0.04955 0.5363636363636372  1 0.04955 0.5661616161616169  1 0.04955 0.5959595959595969  1 0.04955 0.6257575757575765  1 0.04955 0.6555555555555564  1 0.04955 0.6853535353535362  1 0.04955 0.7151515151515158  1 0.04955 0.7449494949494958  1 0.04955 0.7747474747474755 
[...]
<PointData  Vectors="Displacement"> 
<DataArray  type="Float64"  Name="Displacement"  NumberOfComponents="3" format="ascii">0.0000000000000000e+00 0.0000000000000000e+00 0.0000000000000000e+00  0.0000000000000000e+00 0.0000000000000000e+00 0.0000000000000000e+00  4.1495769175954891e-05 -3.1893311430580334e-03 4.3882216928555771e-06  4.1542508923600673e-05 -3.2042137633820937e-03 -1.3041139276733729e-05  0.0000000000000000e+00 0.0000000000000000e+00 0.0000000000000000e+00  0.0000000000000000e+00 0.0000000000000000e+00 0.0000000000000000e+00  0.0000000000000000e+00 0.0000000000000000e+00 0.0000000000000000e+00  0.0000000000000000e+00 0.0000000000000000e+00 0.0000000000000000e+00  0.0000000000000000e+00 0.0000000000000000e+00 0.0000000000000000e+00  0.0000000000000000e+00 0.0000000000000000e+00 0.0000000000000000e+00  0.0000000000000000e+00 0.0000000000000000e+00 0.0000000000000000e+00  0.0000000000000000e+00 0.0000000000000000e+00 0.0000000000000000e+00  0.0000000000000000e+00 0.0000000000000000e+00 0.0000000000000000e+00  0.0000000000000000e+00 0.0000000000000000e+00 0.0000000000000000e+00  0.0000000000000000e+00 0.0000000000000000e+00 0.0000000000000000e+00  0.0000000000000000e+00 0.0000000000000000e+00 0.0000000000000000e+00  0.0000000000000000e+00 0.0000000000000000e+00 0.0000000000000000e+00  0.0000000000000000e+00 0.0000000000000000e+00 0.0000000000000000e+00  0.0000000000000000e+00 0.0000000000000000e+00 0.0000000000000000e+00  0.0000000000000000e+00 0.0000000000000000e+00 0.0000000000000000e+00  0.0000000000000000e+00 0.0000000000000000e+00 0.0000000000000000e+00  0.0000000000000000e+00 0.0000000000000000e+00 0.0000000000000000e+00  0.0000000000000000e+00 0.0000000000000000e+00 0.0000000000000000e+00  0.0000000000000000e+00 0.0000000000000000e+00 0.0000000000000000e+00  0.0000000000000000e+00 0.0000000000000000e+00 0.0000000000000000e+00  0.0000000000000000e+00 0.0000000000000000e+00 0.0000000000000000e+00  0.0000000000000000e+00 0.0000000000000000e+00 0.0000000000000000e+00  0.0000000000000000e+00 0.0000000000000000e+00 0.0000000000000000e+00  0.0000000000000000e+00 0.0000000000000000e+00 0.0000000000000000e+00  0.0000000000000000e+00 0.0000000000000000e+00 0.0000000000000000e+00  0.0000000000000000e+00 0.0000000000000000e+00 0.0000000000000000e+00  0.0000000000000000e+00 0.0000000000000000e+00 0.0000000000000000e+00  0.0000000000000000e+00 0.0000000000000000e+00 0.0000000000000000e+00  0.0000000000000000e+00 0.0000000000000000e+00 0.0000000000000000e+00  0.0000000000000000e+00 0.0000000000000000e+00 0.0000000000000000e+00  0.0000000000000000e+00 0.0000000000000000e+00 0.0000000000000000e+00  0.0000000000000000e+00 0.0000000000000000e+00 0.0000000000000000e+00  -3.2417384244735600e-08 6.2149608773357372e-07 7.5550975478189725e-08  7.1646029017846486e-08 2.6734095154470033e-07 3.3707198545295276e-07  1.8606359063366925e-07 -1.0904829882825771e-06 6.3582066420619801e-07  3.1631133015171092e-07 -3.7306973919247538e-06 7.1994531625840862e-07  3.0195020498201895e-07 -7.6248487370204358e-06 8.2995780092808375e-07  4.6349367779844277e-07 -1.2887139972143880e-05 9.0602646591022336e-07  5.4143088994058598e-07 -1.9623828630370464e-05 9.2207912250533065e-07  6.1170069200308868e-07 -2.7437536399389995e-05 1.1902187809425221e-06  7.7882303527720972e-07 -3.6523442742352162e-05 1.2921267454322227e-06  8.5911264971526839e-07 -4.6978923822448075e-05 1.3731667070308765e-06  1.0901067814012339e-06 -5.8529176609620471e-05 1.4986094216204621e-06  1.3346715008697805e-06 -7.1239773681548040e-05 1.5305990634610198e-06  1.4195476162684915e-06 -8.5244179237809693e-05 1.6535745785653568e-06  1.6479151893886122e-06 -1.0020208860683387e-04 1.4799896722916813e-06  1.7586902174660739e-06 -1.1623921038835098e-04 1.7489150244539357e-06  2.0623190152611087e-06 -1.3342720325567949e-04 1.7162164096624461e-06  2.2739837112115355e-06 -1.5132663994508731e-04 1.8472521803517790e-06  2.4314187349304404e-06 -1.7068128895239316e-04 1.9704136214661286e-06  2.7851172261990153e-06 -1.9089522289118634e-04 2.1070353896188137e-06  3.0268150793032790e-06 -2.1196737536741312e-04 1.9581570570663376e-06  3.2919307918325345e-06 -2.3370596180999795e-04 2.2487234121590164e-06  3.5466992478689628e-06 -2.5628186106069830e-04 2.5166268576586529e-06  4.0249073324447195e-06 -2.7975579116175538e-04 2.5323965918764476e-06  4.2190880116154514e-06 -3.0393609211521426e-04 2.5852408142363606e-06  4.6530891388328889e-06 -3.2882872752384854e-04 2.6427271263026551e-06  5.0344721655061102e-06 -3.5445905648822935e-04 2.5066033665190055e-06  5.2465009174727252e-06 -3.8106687379366996e-04 2.4878554263596424e-06  5.5244744420958041e-06 -4.0828360682200948e-04 2.7014683784298770e-06  5.8899749210304325e-06 -4.3636989187523456e-04 2.8370599566828724e-06  6.3092446041923147e-06 -4.6503157827392882e-04 2.9417857587113571e-06  6.6589072805132876e-06 -4.9423376690836186e-04 3.0299648777117882e-06  7.0613833067209640e-06 -5.2404735604764366e-04 3.1067198850073030e-06  7.4898369271908091e-06 -5.5453753776410855e-04 3.1294934791687019e-06  7.9041734711610020e-06 -5.8565820715398621e-04 3.0473137022638571e-06  8.2260845286886519e-06 -6.1714223920927836e-04 3.0967500350417759e-06  8.5941528825945940e-06 -6.4922674069360327e-04 3.2912847270554251e-06  9.1044473109082619e-06 -6.8188037428746804e-04 3.3378335282079420e-06  9.5403966678355210e-06 -7.1505376995274739e-04 3.3428927821906702e-06  9.9720560170785579e-06 -7.4871702462693025e-04 3.2800217210968458e-06  1.0339863750169725e-05 -7.8267955135038407e-04 3.3956528465178452e-06  1.0789286186370422e-05 -8.1713558666946439e-04 3.4854013920573713e-06  1.1277646428340271e-05 -8.5220178654689220e-04 3.5760280022790121e-06  1.1676145554360597e-05 -8.8767442365511671e-04 3.6421588855456729e-06  1.2202652980712125e-05 -9.2354482037880308e-04 3.6743568335085716e-06  1.2680720462536869e-05 -9.5983324382884611e-04 3.6848381549941816e-06  1.3132015949253874e-05 -9.9649525103917948e-04 3.6911859702670827e-06  1.3622054230318437e-05 -1.0334485061832762e-03 3.6270369640619647e-06  1.4081205774480312e-05 -1.0707614559434687e-03 3.7034846552299691e-06  1.4536778854750647e-05 -1.1083542735194477e-03 3.7399035646886393e-06  1.5048284160111596e-05 -1.1463044534275879e-03 3.7966080216397216e-06  1.5525342902531278e-05 -1.1846254021098464e-03 3.9034626187366151e-06  1.6032449808269233e-05 -1.2231922714356703e-03 3.9474815223838224e-06  1.6574686505443148e-05 -1.2620691443120955e-03 3.8861404398005365e-06  1.7026684172425154e-05 -1.3011478832430077e-03 3.9163307881399175e-06  1.7570215078458589e-05 -1.3405108010009601e-03 3.9240630021982443e-06  1.8047290441270723e-05 -1.3801157255806645e-03 3.9545904371344912e-06  1.8555647346719917e-05 -1.4198963850595822e-03 3.9980891147489863e-06  1.9055723982787650e-05 -1.4599116525161983e-03 4.0902062432310563e-06  1.9609886686526233e-05 -1.5001258127667835e-03 4.1139781534905403e-06  2.0146558672857210e-05 -1.5405140017996678e-03 4.0711884199919134e-06  2.0633240066181873e-05 -1.5810948719733662e-03 4.0895821586222309e-06  2.1142059046637417e-05 -1.6218860442206492e-03 4.1781341243852903e-06  2.1716861716769867e-05 -1.6628592784336943e-03 4.1782295056757407e-06  2.2258117426520048e-05 -1.7039974655321394e-03 4.1549585497063885e-06  2.2770819302674421e-05 -1.7452794473639601e-03 4.1613069390768718e-06  2.3298646228348587e-05 -1.7866781379357044e-03 4.2203686214051213e-06  2.3825805758474170e-05 -1.8282159208936246e-03 4.2535605562116929e-06  2.4389938151192171e-05 -1.8698442690355426e-03 4.2593432371356685e-06  2.4913624920196970e-05 -1.9116129862149112e-03 4.2748170476281332e-06  2.5476509742246573e-05 -1.9534843373118418e-03 4.2809745432673937e-06  2.6026524693324387e-05 -1.9954607581565602e-03 4.2587853141980131e-06  2.6555893639996318e-05 -2.0375517755145938e-03 4.2661380361924832e-06  2.7094825631016393e-05 -2.0797090183069275e-03 4.3080919015219252e-06  2.7635818384017308e-05 -2.1219415042416753e-03 4.3195989433337557e-06  2.8194087677860050e-05 -2.1642631692926854e-03 4.3318937015373999e-06  2.8743338844120249e-05 -2.2066373400355822e-03 4.3309790994616586e-06  2.9291678611079359e-05 -2.2490695713381784e-03 4.3368250784787357e-06  2.9849817743125267e-05 -2.2915619750630534e-03 4.3306863240671789e-06  3.0399315361512052e-05 -2.3341037433130042e-03 4.3379870450588554e-06  3.0946187869225444e-05 -2.3766928514899798e-03 4.3503294828446118e-06  3.1493857743682462e-05 -2.4193096493103847e-03 4.3641102818053663e-06  3.2054865137562224e-05 -2.4619699748253893e-03 4.3695998733860365e-06  3.2604423242608199e-05 -2.5046540395145750e-03 4.3708326966574642e-06  3.3161728262236489e-05 -2.5473658748866876e-03 4.3731997446623940e-06  3.3717403381992687e-05 -2.5900990593856685e-03 4.3727601008596550e-06  3.4274536515822564e-05 -2.6328541285070258e-03 4.3718852028251083e-06  3.4827334004863844e-05 -2.6756243920108870e-03 4.3780124783940778e-06  3.5379763724390134e-05 -2.7184091649698578e-03 4.3825649288025671e-06  3.5937719241505538e-05 -2.7612052967218438e-03 4.3835019993005770e-06  3.6495108703739019e-05 -2.8040073236449367e-03 4.3829626444443397e-06  3.7051137242315706e-05 -2.8468162620938200e-03 4.3849086533554143e-06  3.7604925532918332e-05 -2.8896285369204768e-03 4.3873839315267054e-06  3.8160684910886463e-05 -2.9324441418182067e-03 4.3880571869027151e-06  3.8717286153571787e-05 -2.9752613283209970e-03 4.3882641852922712e-06  3.9273548886028271e-05 -3.0180773860391161e-03 4.3883980379707842e-06  3.9828839207414632e-05 -3.0608928200649400e-03 4.3880478128254298e-06  4.0385109847003286e-05 -3.1037072044434143e-03 4.3881670125620266e-06  4.0940511009214576e-05 -3.1465200183145949e-03 4.3881853494132325e-06  4.1611321812150501e-05 -3.2038134446480092e-03 -5.1782025036646406e-06  4.1672455253231797e-05 -3.2034054713928188e-03 1.7272693375987962e-06  4.1729839798852556e-05 -3.2029887445433058e-03 8.0751309488448984e-06  4.1784747177002966e-05 -3.2025660301408100e-03 1.4158824921654673e-05  4.1836264033856259e-05 -3.2021415748963197e-03 1.9938562847665269e-05  4.1883483516521843e-05 -3.2017178929089930e-03 2.5316135368510454e-05  4.1929556254855672e-05 -3.2012935186256784e-03 3.0573414047272027e-05  4.1973031451525100e-05 -3.2008687995017477e-03 3.5510637067398648e-05  4.2012125982728769e-05 -3.2004433433994871e-03 4.0050806836841172e-05  4.2049773083287548e-05 -3.2000173256792031e-03 4.4325388661394165e-05  4.2084072423473576e-05 -3.1995877999692903e-03 4.8333380834191486e-05  4.2115091368185010e-05 -3.1991563091726366e-03 5.1904405529703225e-05  4.2142386039563032e-05 -3.1987220874101596e-03 5.5137255571128711e-05  4.2166933767192714e-05 -3.1982884121378222e-03 5.8003787834184284e-05  4.2186888342365752e-05 -3.1978511674624760e-03 6.0444960990394363e-05  4.2203966337141547e-05 -3.1974126695283912e-03 6.2442788803596900e-05  4.2217781148438793e-05 -3.1969713197290582e-03 6.4174929514996724e-05  4.2229344112452426e-05 -3.1965274835780689e-03 6.5636199115216224e-05  4.2237782184766056e-05 -3.1960807554978370e-03 6.6726131639865957e-05  4.2242379862460334e-05 -3.1956320740708687e-03 6.7452706782019240e-05  4.2245493242847295e-05 -3.1951818332428277e-03 6.8059884143297251e-05  4.2244782211216586e-05 -3.1947289208556508e-03 6.8277800047940749e-05  4.2242400266864500e-05 -3.1942732380465864e-03 6.8305388706577645e-05  4.2237671427209074e-05 -3.1938150770615737e-03 6.8066022779625525e-05  4.2227565638305834e-05 -3.1933552265413856e-03 6.7385149956244897e-05  4.2212527366305439e-05 -3.1928930840378063e-03 6.6275570015964847e-05  4.2191114900166452e-05 -3.1924289647429376e-03 6.4584179285608295e-05  4.2165196455706961e-05 -3.1919629668094576e-03 6.2494649047357839e-05  4.2131701316278963e-05 -3.1914953197515659e-03 5.9798485720139869e-05  4.2088030857607716e-05 -3.1910266881846820e-03 5.6239286580840826e-05  4.2030623244852952e-05 -3.1905590687221499e-03 5.1492086670499758e-05  4.1950341517322590e-05 -3.1900931674700532e-03 4.4671857469060531e-05  4.1823247104900157e-05 -3.1896377232035191e-03 3.3671921060779170e-05  -1.5894125070811250e-07 2.3921367810186194e-07 -3.6358649147618241e-08  -2.9741915332038478e-07 -1.0927273171103543e-07 -1.6413730910875608e-07  -3.4792363624640280e-07 -8.0483067384862303e-07 -4.7751112135589559e-07  -2.6514877710372720e-07 -3.3763679214576951e-06 -1.0002062012205069e-06  -1.1111759629687522e-08 -6.2790656488201579e-06 -1.4747747025041087e-06  9.0501701072094203e-08 -9.5700468902581184e-06 -1.6241124945158992e-06  1.8802150216321002e-07 -1.5922325415834468e-05 -1.8430812212714996e-06  3.2804214730252081e-07 -2.2629823358249767e-05 -2.0907091996020585e-06  2.4576893369316222e-07 -3.0411522241891683e-05 -2.3009602528120029e-06  4.1779408772864007e-07 -3.9366993471265156e-05 -2.7416321365459630e-06  8.2697483955094970e-07 -4.9858100209577686e-05 -3.3215572391492846e-06  1.2255391963141779e-06 -6.0824731710934653e-05 -3.9111748074668851e-06  1.6836311606136220e-06 -7.2336711602876403e-05 -4.4692037694305790e-06  1.6444683782482272e-06 -8.7180962338678081e-05 -4.5405904052034734e-06  1.9462197464690974e-06 -1.0297023602956358e-04 -4.7953775051410470e-06  2.1089600217096279e-06 -1.1891587170633981e-04 -5.1922101945226587e-06  2.3573825278692874e-06 -1.3657014615042138e-04 -5.5456792621050436e-06  2.5738043914105257e-06 -1.5575777933534836e-04 -6.1153780688271518e-06  2.7936111733753169e-06 -1.7628338655470785e-04 -6.7304046513370166e-06  3.1451033818337401e-06 -1.9809245367326709e-04 -6.8738871687362372e-06  3.2893857083215774e-06 -2.2073539154008159e-04 -7.0028628990400593e-06  3.5657784754622028e-06 -2.4370305660739643e-04 -7.2424389143062912e-06  3.8978813523608637e-06 -2.6729114816162995e-04 -7.4117188788734280e-06  4.1740665502344879e-06 -2.9183029709895463e-04 -7.6895144142679375e-06  4.5529609294893651e-06 -3.1712143417811844e-04 -8.0102057222132526e-06  4.8279904092042802e-06 -3.4322481392126903e-04 -8.0348185309002874e-06  5.1770791798616704e-06 -3.7033139375605207e-04 -8.5363447009453716e-06  5.4724686990190504e-06 -3.9861064629796949e-04 -8.7578525701657137e-06  5.8343548002657336e-06 -4.2724854884079982e-04 -8.9980713140848907e-06  6.3269112432795875e-06 -4.5661698232967932e-04 -9.2833628915655902e-06  6.7397457735844247e-06 -4.8614810338000247e-04 -9.4217998365579711e-06  7.1060441868926527e-06 -5.1623410904603226e-04 -9.4507037199479311e-06  7.5269550236520698e-06 -5.4703072254863518e-04 -9.6938123853735616e-06  7.8940943708809363e-06 -5.7853828308396921e-04 -9.9099360607714392e-06  8.2586061345762022e-06 -6.1081094396188917e-04 -9.9123588285987035e-06  8.7073854865817964e-06 -6.4331425967222456e-04 -1.0193154088787737e-05  9.1882581763712567e-06 -6.7596444833835020e-04 -1.0219921899615641e-05  9.6586140370900491e-06 -7.0968460784606626e-04 -1.0379966598584051e-05  1.0055659128218303e-05 -7.4387559814170421e-04 -1.0603697274853177e-05  1.0524184568121840e-05 -7.7844838386985468e-04 -1.0771208562497959e-05  1.0940480358975396e-05 -8.1403769216558406e-04 -1.0963695205456709e-05  1.1383478392485661e-05 -8.4986765433978637e-04 -1.1065438132322306e-05  1.1841566112821420e-05 -8.8603785641567492e-04 -1.1212946510666796e-05  1.2307263986434181e-05 -9.2236349000914398e-04 -1.1248531821369025e-05  1.2780849297632116e-05 -9.5926856550476107e-04 -1.1291923455957050e-05  1.3255396822018505e-05 -9.9635913617743483e-04 -1.1408999027854114e-05  1.3685905181489017e-05 -1.0339366067354185e-03 -1.1491057002876942e-05  1.4170701960785434e-05 -1.0716327953511962e-03 -1.1556963283532993e-05  1.4618845654220104e-05 -1.1096525919637315e-03 -1.1702847450042318e-05  1.5166506452727985e-05 -1.1481567105560851e-03 -1.1801357363466894e-05  1.5655761810294872e-05 -1.1869243437624686e-03 -1.1877716651569668e-05  1.6121874798331817e-05 -1.2259658219312009e-03 -1.2014662792726216e-05  1.6619669824010820e-05 -1.2653003903802889e-03 -1.2111040988547632e-05  1.7129474574208902e-05 -1.3049110512926962e-03 -1.2119711985571198e-05  1.7618178454939183e-05 -1.3447433207899480e-03 -1.2216976691117873e-05  1.8130889237316710e-05 -1.3848406428989325e-03 -1.2291084550510348e-05  1.8673491525186145e-05 -1.4250052274069117e-03 -1.2344408039959145e-05  1.9167441281585886e-05 -1.4656464939589216e-03 -1.2405376023713977e-05  1.9656415243746387e-05 -1.5065572860412022e-03 -1.2453610263466909e-05  2.0156563562639082e-05 -1.5475760304802843e-03 -1.2533347663737023e-05  2.0674935577495744e-05 -1.5886791875878701e-03 -1.2581076663092997e-05  2.1211376514480191e-05 -1.6299305998706479e-03 -1.2622039791325231e-05  2.1760265948248522e-05 -1.6711900580196244e-03 -1.2662663964122789e-05  2.2297144938236055e-05 -1.7125781080829321e-03 -1.2677447194432779e-05  2.2838526157485779e-05 -1.7540438179725441e-03 -1.2724827515902968e-05  2.3365959291993298e-05 -1.7958007124233664e-03 -1.2749471912029378e-05  2.3911150249354505e-05 -1.8375823541496520e-03 -1.2775209471298612e-05  2.4450786658688048e-05 -1.8795147897833413e-03 -1.2809585653056894e-05  2.4981081675248060e-05 -1.9216289065954895e-03 -1.2848220554378451e-05  2.5528702101504112e-05 -1.9638381894654124e-03 -1.2870649103922505e-05  2.6043472331575729e-05 -2.0061895634002026e-03 -1.2914826449929809e-05  2.6601944541871639e-05 -2.0485187812019309e-03 -1.2932244089967359e-05  2.7147287973460730e-05 -2.0909656433931879e-03 -1.2944864674180752e-05  2.7693008002789926e-05 -2.1334283426443844e-03 -1.2965771291586062e-05  2.8231102527389425e-05 -2.1760282640791444e-03 -1.2990819528081435e-05  2.8775290441957463e-05 -2.2186443680048389e-03 -1.3009122211822278e-05  2.9327479305907232e-05 -2.2613246933513771e-03 -1.3012089088196588e-05  2.9873769042951273e-05 -2.3040267666549013e-03 -1.3016556233927152e-05  3.0422544837257292e-05 -2.3467961763539002e-03 -1.3027500872845187e-05  3.0972081634992766e-05 -2.3895959194655827e-03 -1.3034879635308216e-05  3.1524872483338464e-05 -2.4323988872396889e-03 -1.3040141549776180e-05  3.2075841865398337e-05 -2.4752326390836349e-03 -1.3048953987005729e-05  3.2629033176774915e-05 -2.5180708829294842e-03 -1.3056287786686697e-05  3.3188501494781887e-05 -2.5609362507265825e-03 -1.3053363855100770e-05  3.3746326574661002e-05 -2.6038136326751071e-03 -1.3053844491943357e-05  3.4296885411549429e-05 -2.6467144263182044e-03 -1.3053807726559318e-05  3.4849734446374124e-05 -2.6896223057469529e-03 -1.3056561131184842e-05  3.5405865150983850e-05 -2.7325238122355702e-03 -1.3056084594341481e-05  3.5964538476775102e-05 -2.7754259895563602e-03 -1.3054473855218167e-05  3.6518281950254734e-05 -2.8183417961927461e-03 -1.3055382952928132e-05  3.7074729844733692e-05 -2.8612415307401389e-03 -1.3050869940352813e-05  3.7634103285535444e-05 -2.9041267539797848e-03 -1.3050591096188127e-05  3.8192384232952465e-05 -2.9470091268643086e-03 -1.3049081852277736e-05  3.8750124145597075e-05 -2.9898912955331918e-03 -1.3046207837090554e-05  3.9308840080179802e-05 -3.0327634118441234e-03 -1.3044521935248548e-05  3.9865519884191434e-05 -3.0756324425268680e-03 -1.3041232500285930e-05  4.0423087207684957e-05 -3.1185019120754109e-03 -1.3040143365742493e-05  4.0982073854702751e-05 -3.1613588049051265e-03 -1.3040830797756461e-05  4.1183951054793711e-05 -3.1896624270065007e-03 -2.4226423836094539e-05  4.1043030286532247e-05 -3.1901139048067443e-03 -3.7546828978240845e-05  4.0962857216267220e-05 -3.1905794514617268e-03 -4.5458531294529588e-05  4.0903667307832159e-05 -3.1910471435921675e-03 -5.1495998236271666e-05  4.0859173119788561e-05 -3.1915150926570936e-03 -5.6278799642686890e-05  4.0825379279813648e-05 -3.1919823573329314e-03 -6.0208213614868582e-05  4.0798313320241969e-05 -3.1924480490481163e-03 -6.3556092612094127e-05  4.0780281574262739e-05 -3.1929117484489488e-03 -6.6177332224291480e-05  4.0767824755276062e-05 -3.1933738360567453e-03 -6.8269867066616402e-05  4.0761790445476690e-05 -3.1938338010596640e-03 -6.9902735268898740e-05  4.0760451923622110e-05 -3.1942911984273450e-03 -7.1109833096015255e-05  4.0762576909942419e-05 -3.1947466645255835e-03 -7.1996902889877534e-05  4.0768923748508363e-05 -3.1951997567498430e-03 -7.24942738