<?xml version="1.0"?>
<VTKFile type="UnstructuredGrid"  version="0.1"  >
<UnstructuredGrid>
<Piece  NumberOfPoints="10958" NumberOfCells="41820">
<Points>
<DataArray  type="Float64"  NumberOfComponents="3"  format="ascii">1 0.04955 0  3.483770450905253e-06 0.04864772283650545 0  3.483770450905253e-06 0.04864772283650545 2.95  1 0.04955 2.95  0.9705745651584323 0.0546328692740541 0  0.9410403409854562 0.05904933268918263 0  0.9114506936029688 0.06307764259166145 0  0.8818365365778597 0.06692205633990718 0  0.852195425756178 0.07055529100758898 0  0.8225213484314672 0.07390813590379837 0  0.7928382076274137 0.07717791230068967 0  0.7631311412584285 0.08022519712851128 0  0.7333970986343074 0.08299595685799818 0  0.7036468593402103 0.08558339900696151 0  0.6738808305098906 0.08798485813956464 0  0.6440919092681797 0.09008334865923617 0  0.6142870835549664 0.09194561288677774 0  0.5844675933514397 0.09355367701932085 0  0.5546335832429207 0.09486496269114339 0  0.5247876530181904 0.095868659884793 0  0.4949363523436856 0.09668736484019783 0  0.4650802095563029 0.09731740696399105 0  0.4352195800941197 0.09768943189876603 0  0.405357042743103 0.09780828360274334 0  0.3754942534896675 0.09784351677757946 0  0.3456322298379585 0.09760772238205492 0  0.3157719755355017 0.09723970101506153 0  0.2859142869264596 0.09668561931752166 0  0.2560638915081948 0.09582390318294828 0  0.2262236143831659 0.09466390431188013 0  0.1964020995566796 0.09309886371899376 0  0.1665963941161298 0.09125714074218327 0  0.1368197180220126 0.08899319787719009 0  0.1070946678970156 0.08612945256268216 0  0.07746305623222323 0.08244010579101241 0  0.04805012948181673 0.07731042839253653 0  0.01932358256457366 0.06928107812002522 0  3.483770450905253e-06 0.04864772283650545 0.02979797979797999  3.483770450905253e-06 0.04864772283650545 0.05959595959595966  3.483770450905253e-06 0.04864772283650545 0.08939393939393965  3.483770450905253e-06 0.04864772283650545 0.1191919191919193  3.483770450905253e-06 0.04864772283650545 0.1489898989898993  3.483770450905253e-06 0.04864772283650545 0.178787878787879  3.483770450905253e-06 0.04864772283650545 0.2085858585858589  3.483770450905253e-06 0.04864772283650545 0.2383838383838386  3.483770450905253e-06 0.04864772283650545 0.2681818181818186  3.483770450905253e-06 0.04864772283650545 0.2979797979797986  3.483770450905253e-06 0.04864772283650545 0.3277777777777782  3.483770450905253e-06 0.04864772283650545 0.3575757575757582  3.483770450905253e-06 0.04864772283650545 0.3873737373737379  3.483770450905253e-06 0.04864772283650545 0.4171717171717179  3.483770450905253e-06 0.04864772283650545 0.4469696969696979  3.483770450905253e-06 0.04864772283650545 0.4767676767676775  3.483770450905253e-06 0.04864772283650545 0.5065656565656572  3.483770450905253e-06 0.04864772283650545 0.5363636363636372  3.483770450905253e-06 0.04864772283650545 0.5661616161616169  3.483770450905254e-06 0.04864772283650545 0.5959595959595969  3.483770450905253e-06 0.04864772283650545 0.6257575757575765  3.483770450905254e-06 0.04864772283650545 0.6555555555555564  3.483770450905253e-06 0.04864772283650545 0.6853535353535362  3.483770450905253e-06 0.04864772283650545 0.7151515151515158  3.483770450905253e-06 0.04864772283650545 0.7449494949494958  3.483770450905253e-06 0.04864772283650545 0.7747474747474755  3.483770450905253e-06 0.04864772283650545 0.8045454545454552  3.483770450905253e-06 0.04864772283650545 0.8343434343434351  3.483770450905253e-06 0.04864772283650545 0.8641414141414151  3.483770450905253e-06 0.04864772283650545 0.8939393939393945  3.483770450905254e-06 0.04864772283650545 0.9237373737373745  3.483770450905253e-06 0.04864772283650545 0.9535353535353545  3.483770450905254e-06 0.04864772283650545 0.9833333333333341  3.483770450905253e-06 0.04864772283650545 1.013131313131314  3.483770450905254e-06 0.04864772283650545 1.042929292929294  3.483770450905253e-06 0.04864772283650545 1.072727272727274  3.483770450905254e-06 0.04864772283650545 1.102525252525254  3.483770450905253e-06 0.04864772283650545 1.132323232323234  3.483770450905254e-06 0.04864772283650545 1.162121212121214  3.483770450905253e-06 0.04864772283650545 1.191919191919194  3.483770450905254e-06 0.04864772283650545 1.221717171717174  3.483770450905253e-06 0.04864772283650545 1.251515151515153  3.483770450905254e-06 0.04864772283650545 1.281313131313133  3.483770450905253e-06 0.04864772283650545 1.311111111111113  3.483770450905253e-06 0.04864772283650545 1.340909090909093  3.483770450905253e-06 0.04864772283650545 1.370707070707073  3.483770450905253e-06 0.04864772283650545 1.400505050505053  3.483770450905253e-06 0.04864772283650545 1.430303030303033  3.483770450905253e-06 0.04864772283650545 1.460101010101013  3.483770450905253e-06 0.04864772283650545 1.489898989898993  3.483770450905253e-06 0.04864772283650545 1.519696969696973  3.483770450905253e-06 0.04864772283650545 1.549494949494953  3.483770450905253e-06 0.04864772283650545 1.579292929292933  3.483770450905253e-06 0.04864772283650545 1.609090909090913  3.483770450905253e-06 0.04864772283650545 1.638888888888893  3.483770450905254e-06 0.04864772283650545 1.668686868686872  3.483770450905253e-06 0.04864772283650545 1.698484848484852  3.483770450905254e-06 0.04864772283650545 1.728282828282832  3.483770450905253e-06 0.04864772283650545 1.758080808080812  3.483770450905254e-06 0.04864772283650545 1.787878787878792  3.483770450905253e-06 0.04864772283650545 1.817676767676772  3.483770450905254e-06 0.04864772283650545 1.847474747474752  3.483770450905253e-06 0.04864772283650545 1.877272727272732  3.483770450905254e-06 0.04864772283650545 1.907070707070712  3.483770450905253e-06 0.04864772283650545 1.936868686868691  3.483770450905253e-06 0.04864772283650545 1.966666666666671  3.483770450905253e-06 0.04864772283650545 1.996464646464651  3.483770450905253e-06 0.04864772283650545 2.02626262626263  3.483770450905253e-06 0.04864772283650545 2.056060606060611  3.483770450905253e-06 0.04864772283650545 2.08585858585859  3.483770450905254e-06 0.04864772283650545 2.11565656565657  3.483770450905253e-06 0.04864772283650545 2.14545454545455  3.483770450905253e-06 0.04864772283650545 2.175252525252529  3.483770450905253e-06 0.04864772283650545 2.205050505050508  3.483770450905253e-06 0.04864772283650545 2.234848484848488  3.483770450905253e-06 0.04864772283650545 2.264646464646468  3.483770450905253e-06 0.04864772283650545 2.294444444444448  3.483770450905253e-06 0.04864772283650545 2.324242424242427  3.483770450905253e-06 0.04864772283650545 2.354040404040407  3.483770450905253e-06 0.04864772283650545 2.383838383838387  3.483770450905254e-06 0.04864772283650545 2.413636363636366  3.483770450905253e-06 0.04864772283650545 2.443434343434346  3.483770450905253e-06 0.04864772283650545 2.473232323232326  3.483770450905253e-06 0.04864772283650545 2.503030303030305  3.483770450905253e-06 0.04864772283650545 2.532828282828285  3.483770450905253e-06 0.04864772283650545 2.562626262626264  3.483770450905253e-06 0.04864772283650545 2.592424242424244  3.483770450905254e-06 0.04864772283650545 2.622222222222224  3.483770450905253e-06 0.04864772283650545 2.652020202020203  3.483770450905253e-06 0.04864772283650545 2.681818181818183  3.483770450905253e-06 0.04864772283650545 2.711616161616163  3.483770450905253e-06 0.04864772283650545 2.741414141414142  3.483770450905254e-06 0.04864772283650545 2.771212121212122  3.483770450905253e-06 0.04864772283650545 2.801010101010102  3.483770450905253e-06 0.04864772283650545 2.830808080808081  3.483770450905253e-06 0.04864772283650545 2.860606060606061  3.483770450905253e-06 0.04864772283650545 2.890404040404041  3.483770450905253e-06 0.04864772283650545 2.92020202020202  0.9705745651584323 0.0546328692740541 2.95  0.9410403409854562 0.05904933268918263 2.95  0.9114506936029688 0.06307764259166145 2.95  0.8818365365778597 0.06692205633990718 2.95  0.852195425756178 0.07055529100758898 2.95  0.8225213484314672 0.07390813590379837 2.95  0.7928382076274137 0.07717791230068967 2.95  0.7631311412584285 0.08022519712851128 2.95  0.7333970986343074 0.08299595685799818 2.95  0.7036468593402103 0.08558339900696151 2.95  0.6738808305098906 0.08798485813956464 2.95  0.6440919092681797 0.09008334865923617 2.95  0.6142870835549664 0.09194561288677774 2.95  0.5844675933514397 0.09355367701932085 2.95  0.5546335832429207 0.09486496269114339 2.95  0.5247876530181904 0.095868659884793 2.95  0.4949363523436856 0.09668736484019783 2.95  0.4650802095563029 0.09731740696399105 2.95  0.4352195800941197 0.09768943189876603 2.95  0.405357042743103 0.09780828360274334 2.95  0.3754942534896675 0.09784351677757946 2.95  0.3456322298379585 0.09760772238205492 2.95  0.3157719755355017 0.09723970101506153 2.95  0.2859142869264596 0.09668561931752166 2.95  0.2560638915081948 0.09582390318294828 2.95  0.2262236143831659 0.09466390431188013 2.95  0.1964020995566796 0.09309886371899376 2.95  0.1665963941161298 0.09125714074218327 2.95  0.1368197180220126 0.08899319787719009 2.95  0.1070946678970156 0.08612945256268216 2.95  0.07746305623222323 0.08244010579101241 2.95  0.04805012948181673 0.07731042839253653 2.95  0.01932358256457366 0.06928107812002522 2.95  1 0.04955 0.02979797979797999  1 0.04955 0.05959595959595966  1 0.04955 0.08939393939393965  1 0.04955 0.1191919191919193  1 0.04955 0.1489898989898993  1 0.04955 0.178787878787879  1 0.04955 0.2085858585858589  1 0.04955 0.2383838383838386  1 0.04955 0.2681818181818186  1 0.04955 0.2979797979797986  1 0.04955 0.3277777777777782  1 0.04955 0.3575757575757582  1 0.04955 0.3873737373737379  1 0.04955 0.4171717171717179  1 0.04955 0.4469696969696979  1 0.04955 0.4767676767676775  1 0.04955 0.5065656565656572  1 0.04955 0.5363636363636372  1 0.04955 0.5661616161616169  1 0.04955 0.5959595959595969  1 0.04955 0.6257575757575765  1 0.04955 0.6555555555555564  1 0.04955 0.6853535353535362  1 0.04955 0.7151515151515158  1 0.04955 0.7449494949494958  1 0.04955 0.7747474747474755 
[...]
<PointData  Vectors="Displacement"> 
<DataArray  type="Float64"  Name="Displacement"  NumberOfComponents="3" format="ascii">0.0000000000000000e+00 0.0000000000000000e+00 0.0000000000000000e+00  0.0000000000000000e+00 0.0000000000000000e+00 0.0000000000000000e+00  6.2982936498042174e-05 -4.8013772877972104e-03 6.7950760134840731e-06  6.3061810788227109e-05 -4.8222307169962716e-03 -2.0073382901613810e-05  0.0000000000000000e+00 0.0000000000000000e+00 0.0000000000000000e+00  0.0000000000000000e+00 0.0000000000000000e+00 0.0000000000000000e+00  0.0000000000000000e+00 0.0000000000000000e+00 0.0000000000000000e+00  0.0000000000000000e+00 0.0000000000000000e+00 0.0000000000000000e+00  0.0000000000000000e+00 0.0000000000000000e+00 0.0000000000000000e+00  0.0000000000000000e+00 0.0000000000000000e+00 0.0000000000000000e+00  0.0000000000000000e+00 0.0000000000000000e+00 0.0000000000000000e+00  0.0000000000000000e+00 0.0000000000000000e+00 0.0000000000000000e+00  0.0000000000000000e+00 0.0000000000000000e+00 0.0000000000000000e+00  0.0000000000000000e+00 0.0000000000000000e+00 0.0000000000000000e+00  0.0000000000000000e+00 0.0000000000000000e+00 0.0000000000000000e+00  0.0000000000000000e+00 0.0000000000000000e+00 0.0000000000000000e+00  0.0000000000000000e+00 0.0000000000000000e+00 0.0000000000000000e+00  0.0000000000000000e+00 0.0000000000000000e+00 0.0000000000000000e+00  0.0000000000000000e+00 0.0000000000000000e+00 0.0000000000000000e+00  0.0000000000000000e+00 0.0000000000000000e+00 0.0000000000000000e+00  0.0000000000000000e+00 0.0000000000000000e+00 0.0000000000000000e+00  0.0000000000000000e+00 0.0000000000000000e+00 0.0000000000000000e+00  0.0000000000000000e+00 0.0000000000000000e+00 0.0000000000000000e+00  0.0000000000000000e+00 0.0000000000000000e+00 0.0000000000000000e+00  0.0000000000000000e+00 0.0000000000000000e+00 0.0000000000000000e+00  0.0000000000000000e+00 0.0000000000000000e+00 0.0000000000000000e+00  0.0000000000000000e+00 0.0000000000000000e+00 0.0000000000000000e+00  0.0000000000000000e+00 0.0000000000000000e+00 0.0000000000000000e+00  0.0000000000000000e+00 0.0000000000000000e+00 0.0000000000000000e+00  0.0000000000000000e+00 0.0000000000000000e+00 0.0000000000000000e+00  0.0000000000000000e+00 0.0000000000000000e+00 0.0000000000000000e+00  0.0000000000000000e+00 0.0000000000000000e+00 0.0000000000000000e+00  0.0000000000000000e+00 0.0000000000000000e+00 0.0000000000000000e+00  0.0000000000000000e+00 0.0000000000000000e+00 0.0000000000000000e+00  0.0000000000000000e+00 0.0000000000000000e+00 0.0000000000000000e+00  0.0000000000000000e+00 0.0000000000000000e+00 0.0000000000000000e+00  0.0000000000000000e+00 0.0000000000000000e+00 0.0000000000000000e+00  -4.3597450037139550e-08 9.2290106218555890e-07 1.1473494289268812e-07  1.0647110837891267e-07 4.6514107043761011e-07 4.9129379602613637e-07  2.7338689520122348e-07 -1.4255845333395635e-06 9.2265211875361265e-07  4.5955172370588265e-07 -5.1528565449524353e-06 1.0496828979368724e-06  4.4048213585969175e-07 -1.0682506447715195e-05 1.2119991602280707e-06  6.7513417559143344e-07 -1.8183836949270965e-05 1.3267542831852866e-06  7.8803179902357405e-07 -2.7818265561371369e-05 1.3547171410004561e-06  8.9223651281445373e-07 -3.9014772341950068e-05 1.7465277355667564e-06  1.1353689544841501e-06 -5.2057159384181912e-05 1.8988369111024797e-06  1.2519882241538772e-06 -6.7095762059435324e-05 2.0208409906967765e-06  1.5902810689079564e-06 -8.3733601819502808e-05 2.2081758575689506e-06  1.9485343370847770e-06 -1.0207162187579797e-04 2.2587841536913101e-06  2.0723879748437732e-06 -1.2231044124668430e-04 2.4416431768771720e-06  2.4056699471790374e-06 -1.4395385139440864e-04 2.1871464204309314e-06  2.5690854690057672e-06 -1.6719048431552413e-04 2.5870565477612156e-06  3.0135448438925019e-06 -1.9213185273445863e-04 2.5410886064177182e-06  3.3248380875054721e-06 -2.1812787700954656e-04 2.7362149212146974e-06  3.5541195879264516e-06 -2.4629190534893519e-04 2.9225335515791548e-06  4.0785403532558033e-06 -2.7574057803728911e-04 3.1285206404061520e-06  4.4301070568903641e-06 -3.0647593589650603e-04 2.9063332308419491e-06  4.8219938680418535e-06 -3.3821288331339536e-04 3.3441618628025134e-06  5.1998028639555231e-06 -3.7121006203650323e-04 3.7492892505326194e-06  5.9102533633753748e-06 -4.0556257556298664e-04 3.7762620811434265e-06  6.1935489432895576e-06 -4.4098512517054989e-04 3.8581066118123909e-06  6.8420597343562679e-06 -4.7748948184219559e-04 3.9474878613998519e-06  7.4069481850216450e-06 -5.1511663231480786e-04 3.7414298530665159e-06  7.7162494620107327e-06 -5.5423731536687363e-04 3.7128696272307310e-06  8.1259429299126439e-06 -5.9429138208222235e-04 4.0397750941991022e-06  8.6716057625393191e-06 -6.3568290908416205e-04 4.2499714841433886e-06  9.2978970774795873e-06 -6.7796359147610991e-04 4.4128754131415131e-06  9.8165221246748660e-06 -7.2108258830976403e-04 4.5496402949434518e-06  1.0418719648988444e-05 -7.6515022278982232e-04 4.6713471958737355e-06  1.1061439198196625e-05 -8.1027093205127652e-04 4.7088812716376772e-06  1.1678772951716313e-05 -8.5637738437388609e-04 4.5802353053365730e-06  1.2154403217499700e-05 -9.0305565616251359e-04 4.6588552464732933e-06  1.2705180737358158e-05 -9.5067545718279900e-04 4.9651505182306155e-06  1.3476629667644054e-05 -9.9919113413364231e-04 5.0396940764024375e-06  1.4130020929405971e-05 -1.0485283589943277e-03 5.0475459388234117e-06  1.4777166662123099e-05 -1.0986419386591370e-03 4.9485951929479644e-06  1.5324703910610855e-05 -1.1492351633850492e-03 5.1330821550672483e-06  1.6001065912538151e-05 -1.2006144742400088e-03 5.2757581537184073e-06  1.6740388874396750e-05 -1.2529690722024767e-03 5.4222009665230986e-06  1.7335114525085723e-05 -1.3059784782697480e-03 5.5287458844174340e-06  1.8136270173041735e-05 -1.3596288912126955e-03 5.5820559069756534e-06  1.8858741893902230e-05 -1.4139559051588610e-03 5.5996390413965480e-06  1.9538262938612352e-05 -1.4688904614926813e-03 5.6106080394042001e-06  2.0278684423278253e-05 -1.5243002944807476e-03 5.5059254575740668e-06  2.0971998759441524e-05 -1.5802972762067088e-03 5.6302176472896243e-06  2.1658571308717628e-05 -1.6367534372112959e-03 5.6899649667255243e-06  2.2435910374609496e-05 -1.6937961625249662e-03 5.7821754626160517e-06  2.3158845256397983e-05 -1.7514501501091153e-03 5.9589966345742768e-06  2.3929960843457011e-05 -1.8095111535096848e-03 6.0327494491065152e-06  2.4757196962089684e-05 -1.8680873507804967e-03 5.9311173564748616e-06  2.5437797955408391e-05 -1.9270003954383874e-03 5.9813252946557749e-06  2.6268983285938911e-05 -1.9863885269930551e-03 5.9933467195534204e-06  2.6989700846812732e-05 -2.0461836553879891e-03 6.0448748015730219e-06  2.7762947831914016e-05 -2.1062748118811148e-03 6.1173508870875386e-06  2.8523457430147296e-05 -2.1667628078385244e-03 6.2732833800821995e-06  2.9374590430847568e-05 -2.2275867702292321e-03 6.3140166329792372e-06  3.0193716212303674e-05 -2.2887067673765661e-03 6.2410538663614616e-06  3.0930183481821977e-05 -2.3501557167791170e-03 6.2723599724327868e-06  3.1705331138171566e-05 -2.4119646025778127e-03 6.4238415530197101e-06  3.2591939153720646e-05 -2.4740858141195157e-03 6.4242949288385057e-06  3.3420317593197321e-05 -2.5364912845622597e-03 6.3843842490698626e-06  3.4200304722319878e-05 -2.5991456269957094e-03 6.3947614007031940e-06  3.5007520572211184e-05 -2.6620033599813789e-03 6.4973175331448880e-06  3.5812663523208574e-05 -2.7251033079651577e-03 6.5550696858496428e-06  3.6681958757061301e-05 -2.7883620357329296e-03 6.5650471815123353e-06  3.7480651125311241e-05 -2.8518664580135908e-03 6.5922685955401098e-06  3.8348481209914743e-05 -2.9155515764687713e-03 6.6033489636226308e-06  3.9192749220370484e-05 -2.9794228540994958e-03 6.5640687250691148e-06  4.0001203521067870e-05 -3.0434977031062326e-03 6.5768500993112499e-06  4.0827543418478490e-05 -3.1076904596514300e-03 6.6510086775982377e-06  4.1656445714785408e-05 -3.1720174537332607e-03 6.6716114427019044e-06  4.2516256766155935e-05 -3.2365041589432230e-03 6.6936123149993406e-06  4.3359709128862865e-05 -3.3010862019821085e-03 6.6917311522490838e-06  4.4202191191087249e-05 -3.3657732600635287e-03 6.7023850832850704e-06  4.5061627391604449e-05 -3.4305696785875668e-03 6.6911836859687791e-06  4.5905611602246199e-05 -3.4954561077954445e-03 6.7039354203556679e-06  4.6745217660236115e-05 -3.5604294421582054e-03 6.7261636144262469e-06  4.7586196321190473e-05 -3.6254539535879485e-03 6.7513863355052598e-06  4.8451272069395774e-05 -3.6905587580443600e-03 6.7614043892117632e-06  4.9295396848750965e-05 -3.7557079847867687e-03 6.7635929306027159e-06  5.0153874330637342e-05 -3.8209088950902446e-03 6.7679862439496302e-06  5.1009305375350494e-05 -3.8861497967252606e-03 6.7670920631999520e-06  5.1867215725910236e-05 -3.9514319795889673e-03 6.7652932014373871e-06  5.2717307270366977e-05 -4.0167428868656072e-03 6.7764513347036566e-06  5.3566850386594843e-05 -4.0820814505936626e-03 6.7848606036477409e-06  5.4426517263896101e-05 -4.1474418301336927e-03 6.7865663047496234e-06  5.5285027080262000e-05 -4.2128138006369926e-03 6.7854358322987043e-06  5.6141000255294446e-05 -4.2781992477008883e-03 6.7889131826823825e-06  5.6993002705762380e-05 -4.3435914493299152e-03 6.7936181858924524e-06  5.7848532790179819e-05 -4.4089903857293779e-03 6.7948862596029995e-06  5.8705700371518770e-05 -4.4743926772949629e-03 6.7952478607296292e-06  5.9562180440538125e-05 -4.5397931817024867e-03 6.7954338246314953e-06  6.0416891040779984e-05 -4.6051927463389231e-03 6.7947814154921581e-06  6.1273394542391536e-05 -4.6705905157682715e-03 6.7949686493523821e-06  6.2128293888568021e-05 -4.7359854629109143e-03 6.7950051197369472e-06  6.3155484249894891e-05 -4.8216848692883806e-03 -8.0530543285094704e-06  6.3239301315783788e-05 -4.8211258371536449e-03 2.5041869239270130e-06  6.3318695553914533e-05 -4.8205512902100896e-03 1.2209407064826899e-05  6.3394713602774118e-05 -4.8199660682167631e-03 2.1510988195191114e-05  6.3465848451721887e-05 -4.8193779542022256e-03 3.0347953949412566e-05  6.3530908679639030e-05 -4.8187915906306783e-03 3.8570684552698115e-05  6.3594400994607136e-05 -4.8182040450737039e-03 4.6609325723482725e-05  6.3654564849510587e-05 -4.8176160594375003e-03 5.4158834252959702e-05  6.3708463928858729e-05 -4.8170269185029892e-03 6.1101808488504589e-05  6.3760881197817582e-05 -4.8164368721592592e-03 6.7638336765306592e-05  6.3808344798835706e-05 -4.8158404937641208e-03 7.3767771659946337e-05  6.3851731224083937e-05 -4.8152406869456793e-03 7.9229112143281447e-05  6.3889801906413896e-05 -4.8146359968535540e-03 8.4174203766263680e-05  6.3924442337064200e-05 -4.8140324555744091e-03 8.8559358398154908e-05  6.3952566083363873e-05 -4.8134225189780085e-03 9.2295033404122672e-05  6.3977360548851450e-05 -4.8128104176872423e-03 9.5353017445683576e-05  6.3997354020129175e-05 -4.8121931576204473e-03 9.8005174032117731e-05  6.4014424700777883e-05 -4.8115714511186552e-03 1.0024361635543167e-04  6.4027411219406321e-05 -4.8109445536752577e-03 1.0191464847442395e-04  6.4034985695028777e-05 -4.8103141621118964e-03 1.0303077672983573e-04  6.4040379002985818e-05 -4.8096809750170959e-03 1.0396474062823867e-04  6.4040509127228824e-05 -4.8090429653994786e-03 1.0430417204275622e-04  6.4038422284822425e-05 -4.8083999463540104e-03 1.0435279262696769e-04  6.4033228479987508e-05 -4.8077524576754576e-03 1.0399377783601972e-04  6.4020190342513263e-05 -4.8071018871037640e-03 1.0296057787736619e-04  6.4000037542235011e-05 -4.8064471054455708e-03 1.0127255455702887e-04  6.3970815928798456e-05 -4.8057886435698320e-03 9.8695979812845309e-05  6.3935140832873429e-05 -4.8051266810574898e-03 9.5511164284801828e-05  6.3888325875011107e-05 -4.8044615554214678e-03 9.1399908577342902e-05  6.3826745701145616e-05 -4.8037943190752030e-03 8.5970313885083322e-05  6.3745315345518978e-05 -4.8031283470195566e-03 7.8726053217921746e-05  6.3631254217394790e-05 -4.8024641125912794e-03 6.8315419978308829e-05  6.3450095484991642e-05 -4.8018146119811131e-03 5.1520057114881876e-05  -2.2655301451560246e-07 4.6465633815332867e-07 -3.5887644706447490e-08  -4.1811004701626853e-07 7.9690021667072649e-08 -2.0742143924679696e-07  -4.8738852764675198e-07 -7.9707117193644298e-07 -6.4643875770899839e-07  -3.6552507674645101e-07 -4.3355531108990416e-06 -1.3930951352998387e-06  1.7488275862520007e-09 -8.3462238832923790e-06 -2.0755119282939703e-06  1.4918121755131668e-07 -1.2914312949447729e-05 -2.2907044053503940e-06  2.9067232055028093e-07 -2.1898201227897351e-05 -2.6065685813513755e-06  4.9358538510140049e-07 -3.1396386517404836e-05 -2.9644309547941169e-06  3.7360582984690079e-07 -4.2448663897868806e-05 -3.2687150688842526e-06  6.2313099799432564e-07 -5.5209644024066138e-05 -3.9104243711569064e-06  1.2197573841920479e-06 -7.0202590328995881e-05 -4.7595102785135554e-06  1.8017728624461982e-06 -8.5889222349638678e-05 -5.6253618793381964e-06  2.4722364079250602e-06 -1.0237172022536389e-04 -6.4479284971089742e-06  2.4115191859162543e-06 -1.2375210452741423e-04 -6.5541657821238460e-06  2.8532600801424848e-06 -1.4652848557484698e-04 -6.9318322539649343e-06  3.0932559277954253e-06 -1.6951638687772550e-04 -7.5190040632236611e-06  3.4580968951996493e-06 -1.9504775482554664e-04 -8.0454432521908567e-06  3.7753943396482485e-06 -2.2285618756455127e-04 -8.8964022639836834e-06  4.0967227315229349e-06 -2.5266338671723184e-04 -9.8204442561560688e-06  4.6166040160978003e-06 -2.8439541838282063e-04 -1.0040924302294888e-05  4.8227977561191739e-06 -3.1738407672239882e-04 -1.0237581504836217e-05  5.2293533103560178e-06 -3.5086656942152634e-04 -1.0602070726799679e-05  5.7201664065619439e-06 -3.8527950964235483e-04 -1.0860951199258920e-05  6.1274710685626525e-06 -4.2113302995301643e-04 -1.1284950765615416e-05  6.6901632658337760e-06 -4.5813624072150712e-04 -1.1776539080693327e-05  7.0938891558356773e-06 -4.9636882137973166e-04 -1.1816009328258069e-05  7.6107079008639212e-06 -5.3614501784581350e-04 -1.2590284216263176e-05  8.0453883747410383e-06 -5.7773275164563654e-04 -1.2933850895988292e-05  8.5818510297971953e-06 -6.1987242753955198e-04 -1.3309471023188710e-05  9.3237461714441554e-06 -6.6314140256992088e-04 -1.3758316744040397e-05  9.9402125582020573e-06 -7.0666492698370970e-04 -1.3977367672809594e-05  1.0483509942295460e-05 -7.5105845612260537e-04 -1.4024696896333220e-05  1.1115981221662464e-05 -7.9654833415470500e-04 -1.4409379201233016e-05  1.1661837099074581e-05 -8.4316388561747277e-04 -1.4750348742690367e-05  1.2200207336401081e-05 -8.9098434159984384e-04 -1.4756296717128085e-05  1.2875270935484081e-05 -9.3916142033235279e-04 -1.5202828754186211e-05  1.3598339989437214e-05 -9.8757493206973385e-04 -1.5249049171793225e-05  1.4307625848143975e-05 -1.0376687274270811e-03 -1.5508731907381928e-05  1.4901385465915040e-05 -1.0885230782992337e-03 -1.5866706459864736e-05  1.5609539794068784e-05 -1.1399795698234043e-03 -1.6139988539284737e-05  1.6235182237338873e-05 -1.1930506446287267e-03 -1.6454413008250784e-05  1.6900338771516340e-05 -1.2465442270950093e-03 -1.6620521170326998e-05  1.7593815852533002e-05 -1.3005820820948285e-03 -1.6864444316167182e-05  1.8295881135394995e-05 -1.3548676539316426e-03 -1.6927202895175222e-05  1.9010522638613949e-05 -1.4101141353820691e-03 -1.7000848845718264e-05  1.9729187950719218e-05 -1.4656674874258216e-03 -1.7196296865727299e-05  2.0373803429819747e-05 -1.5220150738226408e-03 -1.7331258580752561e-05  2.1106920094509193e-05 -1.5785659965520463e-03 -1.7442611896438507e-05  2.1783583845397977e-05 -1.6356283857668751e-03 -1.7684400322741464e-05  2.2621063926159555e-05 -1.6934983885963878e-03 -1.7852010404309644e-05  2.3361812798752289e-05 -1.7518078716824252e-03 -1.7981124958120128e-05  2.4069644216780523e-05 -1.8105719082166024e-03 -1.8213886291736653e-05  2.4825095203827590e-05 -1.8698446265922064e-03 -1.8377758564721197e-05  2.5599254555315974e-05 -1.9295774802892593e-03 -1.8394856967165382e-05  2.6339760925885787e-05 -1.9896745049498401e-03 -1.8561037731621295e-05  2.7121767199242581e-05 -2.0502318402661509e-03 -1.8689853648477904e-05  2.7953198785862582e-05 -2.1108979302720088e-03 -1.8784298712946693e-05  2.8704558471471554e-05 -2.1723532021840283e-03 -1.8889677128084802e-05  2.9446541672916040e-05 -2.2342956366662339e-03 -1.8977694883707251e-05  3.0205591402418451e-05 -2.2964410607543831e-03 -1.9117827988234657e-05  3.0994664125970162e-05 -2.3587377774283843e-03 -1.9201908125606917e-05  3.1815447218923481e-05 -2.4212892107443071e-03 -1.9275719838140485e-05  3.2658685742538482e-05 -2.4838552878095675e-03 -1.9350215967536067e-05  3.3480049129135464e-05 -2.5466487555468320e-03 -1.9378149998767001e-05  3.4310805250463865e-05 -2.6095786650727057e-03 -1.9463870286806094e-05  3.5115337368026194e-05 -2.6730220694373102e-03 -1.9507808272596560e-05  3.5951623600085505e-05 -2.7365121349317151e-03 -1.9555116636990818e-05  3.6778782095818541e-05 -2.8002635664315999e-03 -1.9617797245293520e-05  3.7589572303177791e-05 -2.8643345576557112e-03 -1.9687596352641192e-05  3.8431434350900961e-05 -2.9285734723953887e-03 -1.9730692092254724e-05  3.9215635806613626e-05 -2.9930655823694218e-03 -1.9810581678460802e-05  4.0075426269968154e-05 -3.0575326006761199e-03 -1.9844126582892821e-05  4.0911430475128371e-05 -3.1222126253776365e-03 -1.9868052600760370e-05  4.1749254736281463e-05 -3.1869230402590790e-03 -1.9908131053140406e-05  4.2574337323126479e-05 -3.2518801255313691e-03 -1.9956469344518576e-05  4.3409303451110672e-05 -3.3168707487522026e-03 -1.9991720061889606e-05  4.4259019515668349e-05 -3.3819827597112635e-03 -1.9999726069295354e-05  4.5097522127568922e-05 -3.4471346577194233e-03 -2.0009255833186112e-05  4.5940195700130916e-05 -3.5124160623986331e-03 -2.0030757460054033e-05  4.6784071509003171e-05 -3.5777586597771469e-03 -2.0045785150760944e-05  4.7634411069156082e-05 -3.6431077022416082e-03 -2.0057400510536795e-05  4.8481426965125756e-05 -3.7085130088771951e-03 -2.0074652967268733e-05  4.9332135785769179e-05 -3.7739311354552741e-03 -2.0089555223689457e-05  5.0194754900304371e-05 -3.8394003581742487e-03 -2.0085793861436703e-05  5.1054612317784593e-05 -3.9048905583903377e-03 -2.0088779898661126e-05  5.1901595225143903e-05 -3.9704304342174802e-03 -2.0090401037284496e-05  5.2751654624819606e-05 -4.0359882463103297e-03 -2.0096615295692376e-05  5.3607889031275670e-05 -4.1015365717327456e-03 -2.0096440102595882e-05  5.4468795107251456e-05 -4.1670867651516195e-03 -2.0094145901407022e-05  5.5320765844387987e-05 -4.2326634639623141e-03 -2.0096684752876948e-05  5.6177571234154462e-05 -4.2982142688627965e-03 -2.0089543070330510e-05  5.7039632561115861e-05 -4.3637401837763393e-03 -2.0089419628205017e-05  5.7899847710128516e-05 -4.4292611515519744e-03 -2.0087021278856233e-05  5.8759124521316914e-05 -4.4947821790565562e-03 -2.0082156021814881e-05  5.9620105898450357e-05 -4.5602854661459359e-03 -2.0079296508946724e-05  6.0477442237157881e-05 -4.6257833512797315e-03 -2.0073469560484505e-05  6.1336337536729792e-05 -4.6912820316614475e-03 -2.0071556677837773e-05  6.2197767308671910e-05 -4.7567581309356831e-03 -2.0072820071950811e-05  6.2538113270359323e-05 -4.8018498489324647e-03 -3.6916845766351895e-05  6.2337236396582359e-05 -4.8024937669651014e-03 -5.7269092676560833e-05  6.2223341628084332e-05 -4.8031573664197918e-03 -6.9359855902031430e-05  6.2139463506231764e-05 -4.8038235681322041e-03 -7.8587723352397903e-05  6.2076865749363021e-05 -4.8044896141052435e-03 -8.5899372537676514e-05  6.2030015065685096e-05 -4.8051540980073287e-03 -9.1907235405275405e-05  6.1992866091196549e-05 -4.8058155439909293e-03 -9.7026825619994425e-05  6.1968987515016483e-05 -4.8064732093631877e-03 -1.0103679022947345e-04  6.1952940987571736e-05 -4.8071278641261166e-03 -1.0423929916037546e-04  6.1946572806698361e-05 -4.8077786335956694e-03 -1.0673972166451203e-04  6.1946892477458533e-05 -4.8084247339035052e-03 -1.0858987904237130e-04  6.1952119010964121e-05 -4.8090673428849455e-03 -1.0995171287277965e-04  6.1963333814789873e-05 -4.8097056767199744e-03 -1.1071828535