<?xml version="1.0"?>
<VTKFile type="UnstructuredGrid"  version="0.1"  >
<UnstructuredGrid>
<Piece  NumberOfPoints="10958" NumberOfCells="41820">
<Points>
<DataArray  type="Float64"  NumberOfComponents="3"  format="ascii">1 0.04955 0  3.483770450905253e-06 0.04864772283650545 0  3.483770450905253e-06 0.04864772283650545 2.95  1 0.04955 2.95  0.9705745651584323 0.0546328692740541 0  0.9410403409854562 0.05904933268918263 0  0.9114506936029688 0.06307764259166145 0  0.8818365365778597 0.06692205633990718 0  0.852195425756178 0.07055529100758898 0  0.8225213484314672 0.07390813590379837 0  0.7928382076274137 0.07717791230068967 0  0.7631311412584285 0.08022519712851128 0  0.7333970986343074 0.08299595685799818 0  0.7036468593402103 0.08558339900696151 0  0.6738808305098906 0.08798485813956464 0  0.6440919092681797 0.09008334865923617 0  0.6142870835549664 0.09194561288677774 0  0.5844675933514397 0.09355367701932085 0  0.5546335832429207 0.09486496269114339 0  0.5247876530181904 0.095868659884793 0  0.4949363523436856 0.09668736484019783 0  0.4650802095563029 0.09731740696399105 0  0.4352195800941197 0.09768943189876603 0  0.405357042743103 0.09780828360274334 0  0.3754942534896675 0.09784351677757946 0  0.3456322298379585 0.09760772238205492 0  0.3157719755355017 0.09723970101506153 0  0.2859142869264596 0.09668561931752166 0  0.2560638915081948 0.09582390318294828 0  0.2262236143831659 0.09466390431188013 0  0.1964020995566796 0.09309886371899376 0  0.1665963941161298 0.09125714074218327 0  0.1368197180220126 0.08899319787719009 0  0.1070946678970156 0.08612945256268216 0  0.07746305623222323 0.08244010579101241 0  0.04805012948181673 0.07731042839253653 0  0.01932358256457366 0.06928107812002522 0  3.483770450905253e-06 0.04864772283650545 0.02979797979797999  3.483770450905253e-06 0.04864772283650545 0.05959595959595966  3.483770450905253e-06 0.04864772283650545 0.08939393939393965  3.483770450905253e-06 0.04864772283650545 0.1191919191919193  3.483770450905253e-06 0.04864772283650545 0.1489898989898993  3.483770450905253e-06 0.04864772283650545 0.178787878787879  3.483770450905253e-06 0.04864772283650545 0.2085858585858589  3.483770450905253e-06 0.04864772283650545 0.2383838383838386  3.483770450905253e-06 0.04864772283650545 0.2681818181818186  3.483770450905253e-06 0.04864772283650545 0.2979797979797986  3.483770450905253e-06 0.04864772283650545 0.3277777777777782  3.483770450905253e-06 0.04864772283650545 0.3575757575757582  3.483770450905253e-06 0.04864772283650545 0.3873737373737379  3.483770450905253e-06 0.04864772283650545 0.4171717171717179  3.483770450905253e-06 0.04864772283650545 0.4469696969696979  3.483770450905253e-06 0.04864772283650545 0.4767676767676775  3.483770450905253e-06 0.04864772283650545 0.5065656565656572  3.483770450905253e-06 0.04864772283650545 0.5363636363636372  3.483770450905253e-06 0.04864772283650545 0.5661616161616169  3.483770450905254e-06 0.04864772283650545 0.5959595959595969  3.483770450905253e-06 0.04864772283650545 0.6257575757575765  3.483770450905254e-06 0.04864772283650545 0.6555555555555564  3.483770450905253e-06 0.04864772283650545 0.6853535353535362  3.483770450905253e-06 0.04864772283650545 0.7151515151515158  3.483770450905253e-06 0.04864772283650545 0.7449494949494958  3.483770450905253e-06 0.04864772283650545 0.7747474747474755  3.483770450905253e-06 0.04864772283650545 0.8045454545454552  3.483770450905253e-06 0.04864772283650545 0.8343434343434351  3.483770450905253e-06 0.04864772283650545 0.8641414141414151  3.483770450905253e-06 0.04864772283650545 0.8939393939393945  3.483770450905254e-06 0.04864772283650545 0.9237373737373745  3.483770450905253e-06 0.04864772283650545 0.9535353535353545  3.483770450905254e-06 0.04864772283650545 0.9833333333333341  3.483770450905253e-06 0.04864772283650545 1.013131313131314  3.483770450905254e-06 0.04864772283650545 1.042929292929294  3.483770450905253e-06 0.04864772283650545 1.072727272727274  3.483770450905254e-06 0.04864772283650545 1.102525252525254  3.483770450905253e-06 0.04864772283650545 1.132323232323234  3.483770450905254e-06 0.04864772283650545 1.162121212121214  3.483770450905253e-06 0.04864772283650545 1.191919191919194  3.483770450905254e-06 0.04864772283650545 1.221717171717174  3.483770450905253e-06 0.04864772283650545 1.251515151515153  3.483770450905254e-06 0.04864772283650545 1.281313131313133  3.483770450905253e-06 0.04864772283650545 1.311111111111113  3.483770450905253e-06 0.04864772283650545 1.340909090909093  3.483770450905253e-06 0.04864772283650545 1.370707070707073  3.483770450905253e-06 0.04864772283650545 1.400505050505053  3.483770450905253e-06 0.04864772283650545 1.430303030303033  3.483770450905253e-06 0.04864772283650545 1.460101010101013  3.483770450905253e-06 0.04864772283650545 1.489898989898993  3.483770450905253e-06 0.04864772283650545 1.519696969696973  3.483770450905253e-06 0.04864772283650545 1.549494949494953  3.483770450905253e-06 0.04864772283650545 1.579292929292933  3.483770450905253e-06 0.04864772283650545 1.609090909090913  3.483770450905253e-06 0.04864772283650545 1.638888888888893  3.483770450905254e-06 0.04864772283650545 1.668686868686872  3.483770450905253e-06 0.04864772283650545 1.698484848484852  3.483770450905254e-06 0.04864772283650545 1.728282828282832  3.483770450905253e-06 0.04864772283650545 1.758080808080812  3.483770450905254e-06 0.04864772283650545 1.787878787878792  3.483770450905253e-06 0.04864772283650545 1.817676767676772  3.483770450905254e-06 0.04864772283650545 1.847474747474752  3.483770450905253e-06 0.04864772283650545 1.877272727272732  3.483770450905254e-06 0.04864772283650545 1.907070707070712  3.483770450905253e-06 0.04864772283650545 1.936868686868691  3.483770450905253e-06 0.04864772283650545 1.966666666666671  3.483770450905253e-06 0.04864772283650545 1.996464646464651  3.483770450905253e-06 0.04864772283650545 2.02626262626263  3.483770450905253e-06 0.04864772283650545 2.056060606060611  3.483770450905253e-06 0.04864772283650545 2.08585858585859  3.483770450905254e-06 0.04864772283650545 2.11565656565657  3.483770450905253e-06 0.04864772283650545 2.14545454545455  3.483770450905253e-06 0.04864772283650545 2.175252525252529  3.483770450905253e-06 0.04864772283650545 2.205050505050508  3.483770450905253e-06 0.04864772283650545 2.234848484848488  3.483770450905253e-06 0.04864772283650545 2.264646464646468  3.483770450905253e-06 0.04864772283650545 2.294444444444448  3.483770450905253e-06 0.04864772283650545 2.324242424242427  3.483770450905253e-06 0.04864772283650545 2.354040404040407  3.483770450905253e-06 0.04864772283650545 2.383838383838387  3.483770450905254e-06 0.04864772283650545 2.413636363636366  3.483770450905253e-06 0.04864772283650545 2.443434343434346  3.483770450905253e-06 0.04864772283650545 2.473232323232326  3.483770450905253e-06 0.04864772283650545 2.503030303030305  3.483770450905253e-06 0.04864772283650545 2.532828282828285  3.483770450905253e-06 0.04864772283650545 2.562626262626264  3.483770450905253e-06 0.04864772283650545 2.592424242424244  3.483770450905254e-06 0.04864772283650545 2.622222222222224  3.483770450905253e-06 0.04864772283650545 2.652020202020203  3.483770450905253e-06 0.04864772283650545 2.681818181818183  3.483770450905253e-06 0.04864772283650545 2.711616161616163  3.483770450905253e-06 0.04864772283650545 2.741414141414142  3.483770450905254e-06 0.04864772283650545 2.771212121212122  3.483770450905253e-06 0.04864772283650545 2.801010101010102  3.483770450905253e-06 0.04864772283650545 2.830808080808081  3.483770450905253e-06 0.04864772283650545 2.860606060606061  3.483770450905253e-06 0.04864772283650545 2.890404040404041  3.483770450905253e-06 0.04864772283650545 2.92020202020202  0.9705745651584323 0.0546328692740541 2.95  0.9410403409854562 0.05904933268918263 2.95  0.9114506936029688 0.06307764259166145 2.95  0.8818365365778597 0.06692205633990718 2.95  0.852195425756178 0.07055529100758898 2.95  0.8225213484314672 0.07390813590379837 2.95  0.7928382076274137 0.07717791230068967 2.95  0.7631311412584285 0.08022519712851128 2.95  0.7333970986343074 0.08299595685799818 2.95  0.7036468593402103 0.08558339900696151 2.95  0.6738808305098906 0.08798485813956464 2.95  0.6440919092681797 0.09008334865923617 2.95  0.6142870835549664 0.09194561288677774 2.95  0.5844675933514397 0.09355367701932085 2.95  0.5546335832429207 0.09486496269114339 2.95  0.5247876530181904 0.095868659884793 2.95  0.4949363523436856 0.09668736484019783 2.95  0.4650802095563029 0.09731740696399105 2.95  0.4352195800941197 0.09768943189876603 2.95  0.405357042743103 0.09780828360274334 2.95  0.3754942534896675 0.09784351677757946 2.95  0.3456322298379585 0.09760772238205492 2.95  0.3157719755355017 0.09723970101506153 2.95  0.2859142869264596 0.09668561931752166 2.95  0.2560638915081948 0.09582390318294828 2.95  0.2262236143831659 0.09466390431188013 2.95  0.1964020995566796 0.09309886371899376 2.95  0.1665963941161298 0.09125714074218327 2.95  0.1368197180220126 0.08899319787719009 2.95  0.1070946678970156 0.08612945256268216 2.95  0.07746305623222323 0.08244010579101241 2.95  0.04805012948181673 0.07731042839253653 2.95  0.01932358256457366 0.06928107812002522 2.95  1 0.04955 0.02979797979797999  1 0.04955 0.05959595959595966  1 0.04955 0.08939393939393965  1 0.04955 0.1191919191919193  1 0.04955 0.1489898989898993  1 0.04955 0.178787878787879  1 0.04955 0.2085858585858589  1 0.04955 0.2383838383838386  1 0.04955 0.2681818181818186  1 0.04955 0.2979797979797986  1 0.04955 0.3277777777777782  1 0.04955 0.3575757575757582  1 0.04955 0.3873737373737379  1 0.04955 0.4171717171717179  1 0.04955 0.4469696969696979  1 0.04955 0.4767676767676775  1 0.04955 0.5065656565656572  1 0.04955 0.5363636363636372  1 0.04955 0.5661616161616169  1 0.04955 0.5959595959595969  1 0.04955 0.6257575757575765  1 0.04955 0.6555555555555564  1 0.04955 0.6853535353535362  1 0.04955 0.7151515151515158  1 0.04955 0.7449494949494958  1 0.04955 0.7747474747474755 
[...]
<PointData  Vectors="Displacement"> 
<DataArray  type="Float64"  Name="Displacement"  NumberOfComponents="3" format="ascii">0.0000000000000000e+00 0.0000000000000000e+00 0.0000000000000000e+00  0.0000000000000000e+00 0.0000000000000000e+00 0.0000000000000000e+00  9.0331302479211776e-05 -6.8533019035909894e-03 9.8590468255776357e-06  9.0451137046868569e-05 -6.8817184824298038e-03 -2.9026255678295260e-05  0.0000000000000000e+00 0.0000000000000000e+00 0.0000000000000000e+00  0.0000000000000000e+00 0.0000000000000000e+00 0.0000000000000000e+00  0.0000000000000000e+00 0.0000000000000000e+00 0.0000000000000000e+00  0.0000000000000000e+00 0.0000000000000000e+00 0.0000000000000000e+00  0.0000000000000000e+00 0.0000000000000000e+00 0.0000000000000000e+00  0.0000000000000000e+00 0.0000000000000000e+00 0.0000000000000000e+00  0.0000000000000000e+00 0.0000000000000000e+00 0.0000000000000000e+00  0.0000000000000000e+00 0.0000000000000000e+00 0.0000000000000000e+00  0.0000000000000000e+00 0.0000000000000000e+00 0.0000000000000000e+00  0.0000000000000000e+00 0.0000000000000000e+00 0.0000000000000000e+00  0.0000000000000000e+00 0.0000000000000000e+00 0.0000000000000000e+00  0.0000000000000000e+00 0.0000000000000000e+00 0.0000000000000000e+00  0.0000000000000000e+00 0.0000000000000000e+00 0.0000000000000000e+00  0.0000000000000000e+00 0.0000000000000000e+00 0.0000000000000000e+00  0.0000000000000000e+00 0.0000000000000000e+00 0.0000000000000000e+00  0.0000000000000000e+00 0.0000000000000000e+00 0.0000000000000000e+00  0.0000000000000000e+00 0.0000000000000000e+00 0.0000000000000000e+00  0.0000000000000000e+00 0.0000000000000000e+00 0.0000000000000000e+00  0.0000000000000000e+00 0.0000000000000000e+00 0.0000000000000000e+00  0.0000000000000000e+00 0.0000000000000000e+00 0.0000000000000000e+00  0.0000000000000000e+00 0.0000000000000000e+00 0.0000000000000000e+00  0.0000000000000000e+00 0.0000000000000000e+00 0.0000000000000000e+00  0.0000000000000000e+00 0.0000000000000000e+00 0.0000000000000000e+00  0.0000000000000000e+00 0.0000000000000000e+00 0.0000000000000000e+00  0.0000000000000000e+00 0.0000000000000000e+00 0.0000000000000000e+00  0.0000000000000000e+00 0.0000000000000000e+00 0.0000000000000000e+00  0.0000000000000000e+00 0.0000000000000000e+00 0.0000000000000000e+00  0.0000000000000000e+00 0.0000000000000000e+00 0.0000000000000000e+00  0.0000000000000000e+00 0.0000000000000000e+00 0.0000000000000000e+00  0.0000000000000000e+00 0.0000000000000000e+00 0.0000000000000000e+00  0.0000000000000000e+00 0.0000000000000000e+00 0.0000000000000000e+00  0.0000000000000000e+00 0.0000000000000000e+00 0.0000000000000000e+00  0.0000000000000000e+00 0.0000000000000000e+00 0.0000000000000000e+00  -5.7827363395172983e-08 1.3063846890192255e-06 1.6457731711946319e-07  1.5075539078796231e-07 7.1696630554216656e-07 6.8745927402513004e-07  3.8445011637901138e-07 -1.8514869013220959e-06 1.2874994428640075e-06  6.4173429748958318e-07 -6.9613937789668644e-06 1.4691137540139644e-06  6.1666999569001936e-07 -1.4571334832628220e-05 1.6979652595441634e-06  9.4431894566153709e-07 -2.4920720285637618e-05 1.8619360854378117e-06  1.1016812683917108e-06 -3.8241162893161831e-05 1.9050526589649730e-06  1.2490514490531708e-06 -5.3740758372189784e-05 2.4541918055087695e-06  1.5888723351927763e-06 -7.1816059176382481e-05 2.6706232646935006e-06  1.7516958156540433e-06 -9.2684802705002005e-05 2.8447441072357459e-06  2.2264878490776471e-06 -1.1579459104406654e-04 3.1108237227759197e-06  2.7293706104122200e-06 -1.4129138777961683e-04 3.1851218318363043e-06  2.9027961634182811e-06 -1.6946127398336216e-04 3.4441691801748983e-06  3.3695382893030112e-06 -1.9960969625801140e-04 3.0867159196694257e-06  3.5999117387477582e-06 -2.3200536419929358e-04 3.6532900672484635e-06  4.2235300447322579e-06 -2.6681052540325723e-04 3.5904339611767836e-06  4.6615636932102335e-06 -3.0310706357009667e-04 3.8671053129197749e-06  4.9822264357080499e-06 -3.4247865210510316e-04 4.1337920603786759e-06  5.7238611738571610e-06 -3.8367618408356610e-04 4.4280476325270499e-06  6.2151799893483088e-06 -4.2670567520234368e-04 4.1125578141403634e-06  6.7683475767850266e-06 -4.7116329145629115e-04 4.7377948594228548e-06  7.3026941276413581e-06 -5.1741938030931071e-04 5.3175639353795790e-06  8.3086497562497833e-06 -5.6561282646743524e-04 5.3587978856258499e-06  8.7052910525920282e-06 -6.1533917513933946e-04 5.4775523653146742e-06  9.6267573361068017e-06 -6.6661760367426888e-04 5.6075286885945019e-06  1.0425122679001605e-05 -7.1950900866621533e-04 5.3124481294805419e-06  1.0858143667843061e-05 -7.7455083240771648e-04 5.2713859767301297e-06  1.1435402902629958e-05 -8.3093908240743921e-04 5.7424982266875246e-06  1.2210305378829315e-05 -8.8926046016626350e-04 6.0476676447191145e-06  1.3100021076848513e-05 -9.4887043876232203e-04 6.2846333824783162e-06  1.3833613891101693e-05 -1.0096978997856925e-03 6.4832481630337462e-06  1.4689949266799153e-05 -1.0719033685964415e-03 6.6621908722399935e-06  1.5605325846431435e-05 -1.1356412709292107e-03 6.7185193825851078e-06  1.6480951086568298e-05 -1.2008172746302429e-03 6.5306947204265788e-06  1.7152136276333291e-05 -1.2668305535628607e-03 6.6464721499733437e-06  1.7935397610087159e-05 -1.3342196692642295e-03 7.0950818103296626e-06  1.9039212241487584e-05 -1.4029207595837193e-03 7.2052726883909602e-06  1.9969296815422956e-05 -1.4728277362978611e-03 7.2166717717529658e-06  2.0890646902081685e-05 -1.5438759481018200e-03 7.0717627654655726e-06  2.1666855009761659e-05 -1.6156335581220503e-03 7.3439430265370097e-06  2.2632012234983398e-05 -1.6885499100560354e-03 7.5540221477471212e-06  2.3690734086720171e-05 -1.7629066317975230e-03 7.7715616250655649e-06  2.4535130008367158e-05 -1.8382345623883883e-03 7.9295830071694034e-06  2.5685859888403475e-05 -1.9145133786874996e-03 8.0097879562080625e-06  2.6719373834432377e-05 -1.9917982211773311e-03 8.0364141019834985e-06  2.7689326420369116e-05 -2.0699886909083687e-03 8.0532657920656646e-06  2.8748398044485678e-05 -2.1488889196472306e-03 7.8969275237475419e-06  2.9739712401143889e-05 -2.2286661156702475e-03 8.0821711532878093e-06  3.0720248103024078e-05 -2.3091309836700390e-03 8.1716363255894648e-06  3.1835933133326301e-05 -2.3904744886197116e-03 8.3090794317464514e-06  3.2871793516880850e-05 -2.4727357370882084e-03 8.5750614258497380e-06  3.3978934729482224e-05 -2.5556093106615116e-03 8.6867068134559047e-06  3.5168937367232939e-05 -2.6392596022000864e-03 8.5337161223352336e-06  3.6140442398250808e-05 -2.7234187907495756e-03 8.6094304205116900e-06  3.7337788160553490e-05 -2.8082964112020933e-03 8.6269065456661870e-06  3.8368567352311008e-05 -2.8937913529037862e-03 8.7051993268620148e-06  3.9478961154864043e-05 -2.9797356747879866e-03 8.8146048843575519e-06  4.0570941662079685e-05 -3.0662836645874054e-03 9.0518898736620423e-06  4.1800122587022957e-05 -3.1533423745541116e-03 9.1142446305247160e-06  4.2978775636932531e-05 -3.2408526795358501e-03 9.0028037339140785e-06  4.4033129656334975e-05 -3.3288656939758111e-03 9.0505677727052919e-06  4.5147261725174133e-05 -3.4174294509255881e-03 9.2822881974020022e-06  4.6430836152173814e-05 -3.5064716444119857e-03 9.2831947170175705e-06  4.7624702382054513e-05 -3.5959502464998363e-03 9.2220596663504914e-06  4.8744882431143205e-05 -3.6858117321151699e-03 9.2375663498739484e-06  4.9907733093070984e-05 -3.7759871692013085e-03 9.3955921032613632e-06  5.1066712623032560e-05 -3.8665363531521077e-03 9.4846662400942091e-06  5.2324510717027963e-05 -3.9573313311138539e-03 9.4999900882222201e-06  5.3473238479699870e-05 -4.0485063576413561e-03 9.5421940777411940e-06  5.4729298317373846e-05 -4.1399616643187920e-03 9.5595522762437676e-06  5.5948151359143176e-05 -4.2317065843773026e-03 9.4984641460252822e-06  5.7111843468106729e-05 -4.3237685947972683e-03 9.5181666322713570e-06  5.8304043397524679e-05 -4.4160144552360340e-03 9.6334095251540978e-06  5.9499439661848670e-05 -4.5084698282006628e-03 9.6656155065187539e-06  6.0743139670760171e-05 -4.6011749132596402e-03 9.6999987491252015e-06  6.1961112907465074e-05 -4.6940299994562241e-03 9.6968807800959777e-06  6.3178043927516664e-05 -4.7870500240121371e-03 9.7136685289457284e-06  6.4421056354079849e-05 -4.8802421862756485e-03 9.6960033930433130e-06  6.5639926221521761e-05 -4.9735762376058035e-03 9.7157075424252881e-06  6.6852181882809191e-05 -5.0670476966263121e-03 9.7505502960917976e-06  6.8066543581973157e-05 -5.1606003154623364e-03 9.7903758993339709e-06  6.9318734974311679e-05 -5.2542801592709255e-03 9.8061725687734468e-06  7.0537846875551611e-05 -5.3480308315215393e-03 9.8095796247797936e-06  7.1779744396089764e-05 -5.4418637162154141e-03 9.8165584438172279e-06  7.3016787075963127e-05 -5.5357603937989117e-03 9.8150825377258419e-06  7.4257612223009638e-05 -5.6297231187988645e-03 9.8121022822670086e-06  7.5486172519589382e-05 -5.7237318444020302e-03 9.8296815636614644e-06  7.6713953950554166e-05 -5.8177850147551847e-03 9.8430140491195952e-06  7.7957729133142209e-05 -5.9118733548451635e-03 9.8457002556983755e-06  7.9199592485732322e-05 -6.0059805607168134e-03 9.8438140873343269e-06  8.0437418217128371e-05 -6.1001096278507291e-03 9.8492458555072174e-06  8.1669064113424375e-05 -6.1942498160055875e-03 9.8567978293561425e-06  8.2906224856598478e-05 -6.2884010880426659e-03 9.8588251992687525e-06  8.4146039259693793e-05 -6.3825579811046876e-03 9.8593839761509899e-06  8.5384720528530064e-05 -6.4767122470767739e-03 9.8596363244946881e-06  8.6620614628741044e-05 -6.5708651701001965e-03 9.8585979852978190e-06  8.7859339387350932e-05 -6.6650153459935834e-03 9.8588721052538063e-06  8.9095521902474539e-05 -6.7591611010491227e-03 9.8589317902756170e-06  9.0576248125056656e-05 -6.8809885866246900e-03 -1.1712878074126441e-05  9.0688762312488859e-05 -6.8802384565120204e-03 3.4936661820161098e-06  9.0796015608008676e-05 -6.8794641871425507e-03 1.7473353052304707e-05  9.0898755916748084e-05 -6.8786732624638997e-03 3.0871829663840189e-05  9.0994720159408185e-05 -6.8778779783920828e-03 4.3601142166279513e-05  9.1082357761989717e-05 -6.8770856940104739e-03 5.5446220304853547e-05  9.1167894856121728e-05 -6.8762916030271270e-03 6.7025983941573905e-05  9.1249183700451152e-05 -6.8754969516610434e-03 7.7901349805952703e-05  9.1321819305076245e-05 -6.8747006122551234e-03 8.7903477256335528e-05  9.1392940098611528e-05 -6.8739029286388380e-03 9.7319817087307233e-05  9.1457068302755110e-05 -6.8730953085916185e-03 1.0615017988153548e-04  9.1516120061493553e-05 -6.8722823928425722e-03 1.1401818015769004e-04  9.1567838261083579e-05 -6.8714618472489079e-03 1.2114321639688117e-04  9.1615268682380011e-05 -6.8706432189353699e-03 1.2746180333892852e-04  9.1653744446714341e-05 -6.8698145892519130e-03 1.3284556975171858e-04  9.1688330739348500e-05 -6.8689826313149188e-03 1.3725328117326937e-04  9.1716164049547141e-05 -6.8681425707734405e-03 1.4107674303821322e-04  9.1740228954222673e-05 -6.8672955619714579e-03 1.4430462828478183e-04  9.1759000067321257e-05 -6.8664404279068060e-03 1.4671546829074893e-04  9.1770367610760596e-05 -6.8655798325281663e-03 1.4832753459528109e-04  9.1778669413853032e-05 -6.8647148635281085e-03 1.4967752601282412e-04  9.1779887462232123e-05 -6.8638423267468355e-03 1.5017164181767089e-04  9.1778198944056475e-05 -6.8629619222987347e-03 1.5024701349301877e-04  9.1772444071607070e-05 -6.8620745050782380e-03 1.4973564127176541e-04  9.1755713361719473e-05 -6.8611822291693601e-03 1.4825384711386432e-04  9.1729099895528768e-05 -6.8602832912326127e-03 1.4582934605655672e-04  9.1690001599006610e-05 -6.8593784969906181e-03 1.4212576332208235e-04  9.1641980053604283e-05 -6.8584681303692436e-03 1.3754644472198835e-04  9.1578295120426764e-05 -6.8575526659247817e-03 1.3163351952705265e-04  9.1494020716683498e-05 -6.8566336495192639e-03 1.2382257772045342e-04  9.1382141146739072e-05 -6.8557162139601217e-03 1.1339912071428650e-04  9.1225260701472002e-05 -6.8548005270955246e-03 9.8417285140713995e-05  9.0975558258089457e-05 -6.8539049931151501e-03 7.4243357984125118e-05  -3.1259007516753208e-07 7.5198202198200930e-07 -3.5165746766983196e-08  -5.7164780964623792e-07 3.2114275596429271e-07 -2.6226644996927215e-07  -6.6480610641299674e-07 -7.8554832086815836e-07 -8.6101805103996274e-07  -4.9321668136123197e-07 -5.5532374229472954e-06 -1.8925031048393420e-06  1.8096908506014750e-08 -1.0972474477262377e-05 -2.8392769263024924e-06  2.2380728458976666e-07 -1.7164273279207938e-05 -3.1382115961511416e-06  4.2122390398254952e-07 -2.9494868738660303e-05 -3.5773029791596792e-06  7.0413214527053564e-07 -4.2542124005977504e-05 -4.0753642652397352e-06  5.3617075011335390e-07 -5.7753911772961752e-05 -4.4992340476916782e-06  8.8427518888653130e-07 -7.5354936856257323e-05 -5.3966709092415668e-06  1.7193588498765791e-06 -9.6073726819314193e-05 -6.5881732407320620e-06  2.5347488637423117e-06 -1.1776372857215315e-04 -7.8054476926532475e-06  3.4753915088604477e-06 -1.4056830527274739e-04 -8.9645811066674759e-06  3.3872188590628141e-06 -1.7026274509742025e-04 -9.1151311777106582e-06  4.0070454527739307e-06 -2.0192700237810796e-04 -9.6491275097970548e-06  4.3453286023296389e-06 -2.3387280621644979e-04 -1.0478451705585678e-05  4.8582728623589977e-06 -2.6942442762274607e-04 -1.1224968145718536e-05  5.3038966882670000e-06 -3.0819942161407855e-04 -1.2433814648267201e-05  5.7543661149044034e-06 -3.4981405871800718e-04 -1.3751091971970004e-05  6.4884900376430369e-06 -3.9416973982072491e-04 -1.4069566069977266e-05  6.7733987204428007e-06 -4.4032007775473680e-04 -1.4352340639797118e-05  7.3455411577285469e-06 -4.8717950800980514e-04 -1.4875797984078708e-05  8.0382738230221908e-06 -5.3536389325403288e-04 -1.5248704843489301e-05  8.6123896586053171e-06 -5.8561189428444759e-04 -1.5858775711200429e-05  9.4089351787473958e-06 -6.3751584178811519e-04 -1.6567883980209648e-05  9.9763765313282884e-06 -6.9118001379434621e-04 -1.6626250319669740e-05  1.0706592818897657e-05 -7.4707577392485523e-04 -1.7747730080493309e-05  1.1318468012314157e-05 -8.0559642963058372e-04 -1.8246670600063504e-05  1.2077039062774032e-05 -8.6491508813600344e-04 -1.8794673702425877e-05  1.3136247686319049e-05 -9.2587071037355943e-04 -1.9451772220904426e-05  1.4011819801040560e-05 -9.8719785618037854e-04 -1.9773459698914160e-05  1.4780306420046264e-05 -1.0497962788648223e-03 -1.9844237662311867e-05  1.5682003821207853e-05 -1.1139821013982350e-03 -2.0409193667739222e-05  1.6455243698488934e-05 -1.1798217832767461e-03 -2.0909125030566388e-05  1.7214783976462678e-05 -1.2474264371479865e-03 -2.0919551852488935e-05  1.8177810336609021e-05 -1.3155480718133939e-03 -2.1577146810810413e-05  1.9209084054198296e-05 -1.3840202309304496e-03 -2.1648144656790710e-05  2.0222435567329180e-05 -1.4549498228487818e-03 -2.2034744800725840e-05  2.1066501305128110e-05 -1.5270090669294606e-03 -2.2563689170053958e-05  2.2079623635087818e-05 -1.5999510469029454e-03 -2.2971714386938759e-05  2.2971670229925776e-05 -1.6752692895395424e-03 -2.3441484326244279e-05  2.3919523126359982e-05 -1.7512419760316324e-03 -2.3689581515771693e-05  2.4912582892940517e-05 -1.8280188157381988e-03 -2.4056354207617472e-05  2.5915446605083107e-05 -1.9051609104554911e-03 -2.4153750420025663e-05  2.6936856921576230e-05 -1.9837500820679291e-03 -2.4265946604283079e-05  2.7966211152892330e-05 -2.0628008073347017e-03 -2.4561268127779817e-05  2.8883259601855499e-05 -2.1430373513954635e-03 -2.4763625893052518e-05  2.9932399899185114e-05 -2.2235851260009026e-03 -2.4932898141961310e-05  3.0899888942563565e-05 -2.3048835770778679e-03 -2.5296893042755380e-05  3.2106282506763426e-05 -2.3874017068277868e-03 -2.5552586784557533e-05  3.3167099550385143e-05 -2.4705836021093248e-03 -2.5748939884146848e-05  3.4182587924173327e-05 -2.5544503627286060e-03 -2.6103846640669207e-05  3.5265964812444654e-05 -2.6391007643411890e-03 -2.6353757024834905e-05  3.6376576328634534e-05 -2.7244458768060534e-03 -2.6381603747538780e-05  3.7437549595191244e-05 -2.8103368199732148e-03 -2.6635642745023781e-05  3.8562331091995611e-05 -2.8969371078638169e-03 -2.6834221051368207e-05  3.9761431101368085e-05 -2.9836990036247184e-03 -2.6981113913246936e-05  4.0840423459841027e-05 -3.0716483266992620e-03 -2.7143116221923806e-05  4.1904420004732352e-05 -3.1603625542347491e-03 -2.7281897847770929e-05  4.2992977740816951e-05 -3.2494011168888652e-03 -2.7499063802753366e-05  4.4126593020941785e-05 -3.3386763135753255e-03 -2.7629506193639338e-05  4.5309320157355213e-05 -3.4283419877188153e-03 -2.7745226366316059e-05  4.6527273401123711e-05 -3.5180307268157713e-03 -2.7862948085399039e-05  4.7710760217439830e-05 -3.6080729050534453e-03 -2.7907664748748193e-05  4.8909891493611533e-05 -3.6983265121725878e-03 -2.8042306191570928e-05  5.0067122698819563e-05 -3.7893772279814024e-03 -2.8110852865817235e-05  5.1273967606839557e-05 -3.8805025886854590e-03 -2.8185688509790226e-05  5.2467132218609113e-05 -3.9720303356375417e-03 -2.8284487977036670e-05  5.3634964766780999e-05 -4.0640535321456823e-03 -2.8394051526031627e-05  5.4851410848505987e-05 -4.1563374725595856e-03 -2.8463538615909545e-05  5.5978547359258780e-05 -4.2490163713002661e-03 -2.8588998659933955e-05  5.7221937818185380e-05 -4.3416665661290951e-03 -2.8643137443005389e-05  5.8427939765729016e-05 -4.4346514748085583e-03 -2.8681495476962866e-05  5.9637614284857842e-05 -4.5276853628947985e-03 -2.8746056366773163e-05  6.0828027501406034e-05 -4.6211055888738710e-03 -2.8824140754420527e-05  6.2033150643468437e-05 -4.7145815419470764e-03 -2.8881035712758631e-05  6.3261639735219717e-05 -4.8082518888667766e-03 -2.8895493097914555e-05  6.4472127810003739e-05 -4.9019852772737484e-03 -2.8911493059400347e-05  6.5688934102830308e-05 -4.9959275885426068e-03 -2.8946480013996701e-05  6.6907503985711564e-05 -5.0899705362617833e-03 -2.8971281927951888e-05  6.8136639425147948e-05 -5.1840240448921123e-03 -2.8991022424600972e-05  6.9360534101132028e-05 -5.2781663401348326e-03 -2.9019055610492381e-05  7.0589995548279459e-05 -5.3723321299538459e-03 -2.9043629963950481e-05  7.1838561880349213e-05 -5.4665796283291509e-03 -2.9038812897785684e-05  7.3082941368989937e-05 -5.5608595349716751e-03 -2.9045015332505607e-05  7.4307292258170131e-05 -5.6552227078227680e-03 -2.9048767596467434e-05  7.5535712320272619e-05 -5.7496177157936998e-03 -2.9059409571720009e-05  7.6774002042202704e-05 -5.8439992846184806e-03 -2.9059624707607764e-05  7.8019681079814101e-05 -5.9383842558261273e-03 -2.9056463572042834e-05  7.9251313510280363e-05 -6.0328121826470141e-03 -2.9061090626793801e-05  8.0490498326187806e-05 -6.1272017162901744e-03 -2.9050605038831300e-05  8.1737912446979417e-05 -6.2215531307954946e-03 -2.9050683555406503e-05  8.2982520081627503e-05 -6.3158969248618769e-03 -2.9047153867696736e-05  8.4225683107968196e-05 -6.4102411202544137e-03 -2.9039751267527542e-05  8.5471479710280460e-05 -6.5045577701742154e-03 -2.9035396267044269e-05  8.6711578945346826e-05 -6.5988660647033712e-03 -2.9026332902137554e-05  8.7954093385435295e-05 -6.6931756093158027e-03 -2.9023369650698827e-05  8.9200564976651332e-05 -6.7874498098287528e-03 -2.9025368226641745e-05  8.9717846582519983e-05 -6.8539535846135749e-03 -5.3074192104648622e-05  8.9440956209619309e-05 -6.8548414884192768e-03 -8.2379110956458165e-05  8.9284315636120547e-05 -6.8557561823544165e-03 -9.9790480027321080e-05  8.9169146481878994e-05 -6.8566740491249577e-03 -1.1308022291769363e-04  8.9083611981934598e-05 -6.8575912269702704e-03 -1.2361148310266348e-04  8.9020232025725860e-05 -6.8585057192656991e-03 -1.3226552089405793e-04  8.8970325988041137e-05 -6.8594153012426782e-03 -1.3964075780926948e-04  8.8939068390381273e-05 -6.8603188177630784e-03 -1.4541876682529453e-04  8.8918502112625354e-05 -6.8612175367328727e-03 -1.5003442479145709e-04  8.8911751715650979e-05 -6.8621101192839129e-03 -1.5363935525800060e-04  8.8914214563660509e-05 -6.8629953501317675e-03 -1.5630820265800222e-04  8.8923413564068342e-05 -6.8638750979906609e-03 -1.5827446342964727e-04  8.8940839822303577e-05 -6.8647481431391441e-03 -1.5938374736