<?xml version="1.0"?>
<VTKFile type="UnstructuredGrid"  version="0.1"  >
<UnstructuredGrid>
<Piece  NumberOfPoints="10958" NumberOfCells="41820">
<Points>
<DataArray  type="Float64"  NumberOfComponents="3"  format="ascii">1 0.04955 0  3.483770450905253e-06 0.04864772283650545 0  3.483770450905253e-06 0.04864772283650545 2.95  1 0.04955 2.95  0.9705745651584323 0.0546328692740541 0  0.9410403409854562 0.05904933268918263 0  0.9114506936029688 0.06307764259166145 0  0.8818365365778597 0.06692205633990718 0  0.852195425756178 0.07055529100758898 0  0.8225213484314672 0.07390813590379837 0  0.7928382076274137 0.07717791230068967 0  0.7631311412584285 0.08022519712851128 0  0.7333970986343074 0.08299595685799818 0  0.7036468593402103 0.08558339900696151 0  0.6738808305098906 0.08798485813956464 0  0.6440919092681797 0.09008334865923617 0  0.6142870835549664 0.09194561288677774 0  0.5844675933514397 0.09355367701932085 0  0.5546335832429207 0.09486496269114339 0  0.5247876530181904 0.095868659884793 0  0.4949363523436856 0.09668736484019783 0  0.4650802095563029 0.09731740696399105 0  0.4352195800941197 0.09768943189876603 0  0.405357042743103 0.09780828360274334 0  0.3754942534896675 0.09784351677757946 0  0.3456322298379585 0.09760772238205492 0  0.3157719755355017 0.09723970101506153 0  0.2859142869264596 0.09668561931752166 0  0.2560638915081948 0.09582390318294828 0  0.2262236143831659 0.09466390431188013 0  0.1964020995566796 0.09309886371899376 0  0.1665963941161298 0.09125714074218327 0  0.1368197180220126 0.08899319787719009 0  0.1070946678970156 0.08612945256268216 0  0.07746305623222323 0.08244010579101241 0  0.04805012948181673 0.07731042839253653 0  0.01932358256457366 0.06928107812002522 0  3.483770450905253e-06 0.04864772283650545 0.02979797979797999  3.483770450905253e-06 0.04864772283650545 0.05959595959595966  3.483770450905253e-06 0.04864772283650545 0.08939393939393965  3.483770450905253e-06 0.04864772283650545 0.1191919191919193  3.483770450905253e-06 0.04864772283650545 0.1489898989898993  3.483770450905253e-06 0.04864772283650545 0.178787878787879  3.483770450905253e-06 0.04864772283650545 0.2085858585858589  3.483770450905253e-06 0.04864772283650545 0.2383838383838386  3.483770450905253e-06 0.04864772283650545 0.2681818181818186  3.483770450905253e-06 0.04864772283650545 0.2979797979797986  3.483770450905253e-06 0.04864772283650545 0.3277777777777782  3.483770450905253e-06 0.04864772283650545 0.3575757575757582  3.483770450905253e-06 0.04864772283650545 0.3873737373737379  3.483770450905253e-06 0.04864772283650545 0.4171717171717179  3.483770450905253e-06 0.04864772283650545 0.4469696969696979  3.483770450905253e-06 0.04864772283650545 0.4767676767676775  3.483770450905253e-06 0.04864772283650545 0.5065656565656572  3.483770450905253e-06 0.04864772283650545 0.5363636363636372  3.483770450905253e-06 0.04864772283650545 0.5661616161616169  3.483770450905254e-06 0.04864772283650545 0.5959595959595969  3.483770450905253e-06 0.04864772283650545 0.6257575757575765  3.483770450905254e-06 0.04864772283650545 0.6555555555555564  3.483770450905253e-06 0.04864772283650545 0.6853535353535362  3.483770450905253e-06 0.04864772283650545 0.7151515151515158  3.483770450905253e-06 0.04864772283650545 0.7449494949494958  3.483770450905253e-06 0.04864772283650545 0.7747474747474755  3.483770450905253e-06 0.04864772283650545 0.8045454545454552  3.483770450905253e-06 0.04864772283650545 0.8343434343434351  3.483770450905253e-06 0.04864772283650545 0.8641414141414151  3.483770450905253e-06 0.04864772283650545 0.8939393939393945  3.483770450905254e-06 0.04864772283650545 0.9237373737373745  3.483770450905253e-06 0.04864772283650545 0.9535353535353545  3.483770450905254e-06 0.04864772283650545 0.9833333333333341  3.483770450905253e-06 0.04864772283650545 1.013131313131314  3.483770450905254e-06 0.04864772283650545 1.042929292929294  3.483770450905253e-06 0.04864772283650545 1.072727272727274  3.483770450905254e-06 0.04864772283650545 1.102525252525254  3.483770450905253e-06 0.04864772283650545 1.132323232323234  3.483770450905254e-06 0.04864772283650545 1.162121212121214  3.483770450905253e-06 0.04864772283650545 1.191919191919194  3.483770450905254e-06 0.04864772283650545 1.221717171717174  3.483770450905253e-06 0.04864772283650545 1.251515151515153  3.483770450905254e-06 0.04864772283650545 1.281313131313133  3.483770450905253e-06 0.04864772283650545 1.311111111111113  3.483770450905253e-06 0.04864772283650545 1.340909090909093  3.483770450905253e-06 0.04864772283650545 1.370707070707073  3.483770450905253e-06 0.04864772283650545 1.400505050505053  3.483770450905253e-06 0.04864772283650545 1.430303030303033  3.483770450905253e-06 0.04864772283650545 1.460101010101013  3.483770450905253e-06 0.04864772283650545 1.489898989898993  3.483770450905253e-06 0.04864772283650545 1.519696969696973  3.483770450905253e-06 0.04864772283650545 1.549494949494953  3.483770450905253e-06 0.04864772283650545 1.579292929292933  3.483770450905253e-06 0.04864772283650545 1.609090909090913  3.483770450905253e-06 0.04864772283650545 1.638888888888893  3.483770450905254e-06 0.04864772283650545 1.668686868686872  3.483770450905253e-06 0.04864772283650545 1.698484848484852  3.483770450905254e-06 0.04864772283650545 1.728282828282832  3.483770450905253e-06 0.04864772283650545 1.758080808080812  3.483770450905254e-06 0.04864772283650545 1.787878787878792  3.483770450905253e-06 0.04864772283650545 1.817676767676772  3.483770450905254e-06 0.04864772283650545 1.847474747474752  3.483770450905253e-06 0.04864772283650545 1.877272727272732  3.483770450905254e-06 0.04864772283650545 1.907070707070712  3.483770450905253e-06 0.04864772283650545 1.936868686868691  3.483770450905253e-06 0.04864772283650545 1.966666666666671  3.483770450905253e-06 0.04864772283650545 1.996464646464651  3.483770450905253e-06 0.04864772283650545 2.02626262626263  3.483770450905253e-06 0.04864772283650545 2.056060606060611  3.483770450905253e-06 0.04864772283650545 2.08585858585859  3.483770450905254e-06 0.04864772283650545 2.11565656565657  3.483770450905253e-06 0.04864772283650545 2.14545454545455  3.483770450905253e-06 0.04864772283650545 2.175252525252529  3.483770450905253e-06 0.04864772283650545 2.205050505050508  3.483770450905253e-06 0.04864772283650545 2.234848484848488  3.483770450905253e-06 0.04864772283650545 2.264646464646468  3.483770450905253e-06 0.04864772283650545 2.294444444444448  3.483770450905253e-06 0.04864772283650545 2.324242424242427  3.483770450905253e-06 0.04864772283650545 2.354040404040407  3.483770450905253e-06 0.04864772283650545 2.383838383838387  3.483770450905254e-06 0.04864772283650545 2.413636363636366  3.483770450905253e-06 0.04864772283650545 2.443434343434346  3.483770450905253e-06 0.04864772283650545 2.473232323232326  3.483770450905253e-06 0.04864772283650545 2.503030303030305  3.483770450905253e-06 0.04864772283650545 2.532828282828285  3.483770450905253e-06 0.04864772283650545 2.562626262626264  3.483770450905253e-06 0.04864772283650545 2.592424242424244  3.483770450905254e-06 0.04864772283650545 2.622222222222224  3.483770450905253e-06 0.04864772283650545 2.652020202020203  3.483770450905253e-06 0.04864772283650545 2.681818181818183  3.483770450905253e-06 0.04864772283650545 2.711616161616163  3.483770450905253e-06 0.04864772283650545 2.741414141414142  3.483770450905254e-06 0.04864772283650545 2.771212121212122  3.483770450905253e-06 0.04864772283650545 2.801010101010102  3.483770450905253e-06 0.04864772283650545 2.830808080808081  3.483770450905253e-06 0.04864772283650545 2.860606060606061  3.483770450905253e-06 0.04864772283650545 2.890404040404041  3.483770450905253e-06 0.04864772283650545 2.92020202020202  0.9705745651584323 0.0546328692740541 2.95  0.9410403409854562 0.05904933268918263 2.95  0.9114506936029688 0.06307764259166145 2.95  0.8818365365778597 0.06692205633990718 2.95  0.852195425756178 0.07055529100758898 2.95  0.8225213484314672 0.07390813590379837 2.95  0.7928382076274137 0.07717791230068967 2.95  0.7631311412584285 0.08022519712851128 2.95  0.7333970986343074 0.08299595685799818 2.95  0.7036468593402103 0.08558339900696151 2.95  0.6738808305098906 0.08798485813956464 2.95  0.6440919092681797 0.09008334865923617 2.95  0.6142870835549664 0.09194561288677774 2.95  0.5844675933514397 0.09355367701932085 2.95  0.5546335832429207 0.09486496269114339 2.95  0.5247876530181904 0.095868659884793 2.95  0.4949363523436856 0.09668736484019783 2.95  0.4650802095563029 0.09731740696399105 2.95  0.4352195800941197 0.09768943189876603 2.95  0.405357042743103 0.09780828360274334 2.95  0.3754942534896675 0.09784351677757946 2.95  0.3456322298379585 0.09760772238205492 2.95  0.3157719755355017 0.09723970101506153 2.95  0.2859142869264596 0.09668561931752166 2.95  0.2560638915081948 0.09582390318294828 2.95  0.2262236143831659 0.09466390431188013 2.95  0.1964020995566796 0.09309886371899376 2.95  0.1665963941161298 0.09125714074218327 2.95  0.1368197180220126 0.08899319787719009 2.95  0.1070946678970156 0.08612945256268216 2.95  0.07746305623222323 0.08244010579101241 2.95  0.04805012948181673 0.07731042839253653 2.95  0.01932358256457366 0.06928107812002522 2.95  1 0.04955 0.02979797979797999  1 0.04955 0.05959595959595966  1 0.04955 0.08939393939393965  1 0.04955 0.1191919191919193  1 0.04955 0.1489898989898993  1 0.04955 0.178787878787879  1 0.04955 0.2085858585858589  1 0.04955 0.2383838383838386  1 0.04955 0.2681818181818186  1 0.04955 0.2979797979797986  1 0.04955 0.3277777777777782  1 0.04955 0.3575757575757582  1 0.04955 0.3873737373737379  1 0.04955 0.4171717171717179  1 0.04955 0.4469696969696979  1 0.04955 0.4767676767676775  1 0.04955 0.5065656565656572  1 0.04955 0.5363636363636372  1 0.04955 0.5661616161616169  1 0.04955 0.5959595959595969  1 0.04955 0.6257575757575765  1 0.04955 0.6555555555555564  1 0.04955 0.6853535353535362  1 0.04955 0.7151515151515158  1 0.04955 0.7449494949494958  1 0.04955 0.7747474747474755 
[...]
<PointData  Vectors="Displacement"> 
<DataArray  type="Float64"  Name="Displacement"  NumberOfComponents="3" format="ascii">0.0000000000000000e+00 0.0000000000000000e+00 0.0000000000000000e+00  0.0000000000000000e+00 0.0000000000000000e+00 0.0000000000000000e+00  2.9791135730734703e-05 -2.3111706771291526e-03 3.0770041790276501e-06  2.9820356505949872e-05 -2.3228095563678293e-03 -9.2099137927975058e-06  0.0000000000000000e+00 0.0000000000000000e+00 0.0000000000000000e+00  0.0000000000000000e+00 0.0000000000000000e+00 0.0000000000000000e+00  0.0000000000000000e+00 0.0000000000000000e+00 0.0000000000000000e+00  0.0000000000000000e+00 0.0000000000000000e+00 0.0000000000000000e+00  0.0000000000000000e+00 0.0000000000000000e+00 0.0000000000000000e+00  0.0000000000000000e+00 0.0000000000000000e+00 0.0000000000000000e+00  0.0000000000000000e+00 0.0000000000000000e+00 0.0000000000000000e+00  0.0000000000000000e+00 0.0000000000000000e+00 0.0000000000000000e+00  0.0000000000000000e+00 0.0000000000000000e+00 0.0000000000000000e+00  0.0000000000000000e+00 0.0000000000000000e+00 0.0000000000000000e+00  0.0000000000000000e+00 0.0000000000000000e+00 0.0000000000000000e+00  0.0000000000000000e+00 0.0000000000000000e+00 0.0000000000000000e+00  0.0000000000000000e+00 0.0000000000000000e+00 0.0000000000000000e+00  0.0000000000000000e+00 0.0000000000000000e+00 0.0000000000000000e+00  0.0000000000000000e+00 0.0000000000000000e+00 0.0000000000000000e+00  0.0000000000000000e+00 0.0000000000000000e+00 0.0000000000000000e+00  0.0000000000000000e+00 0.0000000000000000e+00 0.0000000000000000e+00  0.0000000000000000e+00 0.0000000000000000e+00 0.0000000000000000e+00  0.0000000000000000e+00 0.0000000000000000e+00 0.0000000000000000e+00  0.0000000000000000e+00 0.0000000000000000e+00 0.0000000000000000e+00  0.0000000000000000e+00 0.0000000000000000e+00 0.0000000000000000e+00  0.0000000000000000e+00 0.0000000000000000e+00 0.0000000000000000e+00  0.0000000000000000e+00 0.0000000000000000e+00 0.0000000000000000e+00  0.0000000000000000e+00 0.0000000000000000e+00 0.0000000000000000e+00  0.0000000000000000e+00 0.0000000000000000e+00 0.0000000000000000e+00  0.0000000000000000e+00 0.0000000000000000e+00 0.0000000000000000e+00  0.0000000000000000e+00 0.0000000000000000e+00 0.0000000000000000e+00  0.0000000000000000e+00 0.0000000000000000e+00 0.0000000000000000e+00  0.0000000000000000e+00 0.0000000000000000e+00 0.0000000000000000e+00  0.0000000000000000e+00 0.0000000000000000e+00 0.0000000000000000e+00  0.0000000000000000e+00 0.0000000000000000e+00 0.0000000000000000e+00  0.0000000000000000e+00 0.0000000000000000e+00 0.0000000000000000e+00  0.0000000000000000e+00 0.0000000000000000e+00 0.0000000000000000e+00  -2.6327260575631231e-08 4.5734575245758837e-07 5.4213631302360960e-08  5.2685533044988745e-08 1.5957720169290243e-07 2.5309308942453289e-07  1.3851540077075354e-07 -9.0808980030078192e-07 4.7962988318533008e-07  2.3831574636940815e-07 -2.9563819336043925e-06 5.4038874936189546e-07  2.2651989966266294e-07 -5.9599532867343020e-06 6.2191855112116741e-07  3.4825212634516978e-07 -1.0002997816567651e-05 6.7691930901483248e-07  4.0715316563604454e-07 -1.5161728604112225e-05 6.8648543384217554e-07  4.5894397321554232e-07 -2.1133325148602344e-05 8.8727668078851246e-07  5.8467488045472310e-07 -2.8064702942299988e-05 9.6173628312000937e-07  6.4518323272788435e-07 -3.6024390626733934e-05 1.0204671302137329e-06  8.1774522456982983e-07 -4.4804117584960703e-05 1.1122027647015101e-06  1.0003976967039956e-06 -5.4450188717808913e-05 1.1340521447208645e-06  1.0640507707517174e-06 -6.5059489849737719e-05 1.2244147102043370e-06  1.2352860428698038e-06 -7.6376620695043935e-05 1.0948983607284687e-06  1.3173963794919870e-06 -8.8493016158782979e-05 1.2924848838776250e-06  1.5443318520464840e-06 -1.0145862305627818e-04 1.2670142505753773e-06  1.7017416825224391e-06 -1.1494874368281471e-04 1.3631448847592584e-06  1.8200551857513296e-06 -1.2950584273148101e-04 1.4519069673121232e-06  2.0807752483390449e-06 -1.4469054330168391e-04 1.5507479295687173e-06  2.2626453236527150e-06 -1.6050008160046941e-04 1.4418021245364005e-06  2.4587223460411021e-06 -1.7679349590136187e-04 1.6521564428003210e-06  2.6464830605828929e-06 -1.9369385749859016e-04 1.8453136423320279e-06  2.9982035111232108e-06 -2.1124314987470608e-04 1.8549802517351834e-06  3.1438595447328604e-06 -2.2930071452005520e-04 1.8920274639622875e-06  3.4610276978499416e-06 -2.4786934803743661e-04 1.9321397663604050e-06  3.7424706933265008e-06 -2.6696589209352468e-04 1.8341139024900181e-06  3.9015332433755128e-06 -2.8675880294454112e-04 1.8207141113252694e-06  4.1077756148125737e-06 -3.0698386702443146e-04 1.9726110398055515e-06  4.3751528699323072e-06 -3.2782357110763512e-04 2.0675591274601472e-06  4.6816686334344521e-06 -3.4906774077597767e-04 2.1405903836492489e-06  4.9393130433665292e-06 -3.7069015776192247e-04 2.2023008862420859e-06  5.2330105504625809e-06 -3.9274023900172557e-04 2.2545641017424558e-06  5.5447611460715067e-06 -4.1526178952808445e-04 2.2692954359469410e-06  5.8485385473196060e-06 -4.3822026327870300e-04 2.2124360500844182e-06  6.0867375012234050e-06 -4.6142851491136756e-04 2.2459721100896242e-06  6.3552946797509919e-06 -4.8505140015193125e-04 2.3796114971768416e-06  6.7233374361284241e-06 -5.0906537705306234e-04 2.4109069115588929e-06  7.0408551741386729e-06 -5.3343466948013859e-04 2.4144466702187668e-06  7.3551481329753836e-06 -5.5813770263884045e-04 2.3712380180295347e-06  7.6250727071239949e-06 -5.8304171103394761e-04 2.4493482975142923e-06  7.9508866557474515e-06 -6.0827978851698433e-04 2.5102566650312951e-06  8.3025457499226310e-06 -6.3392905147171674e-04 2.5704654878925127e-06  8.5941747797550857e-06 -6.5984939025857774e-04 2.6145725550819589e-06  8.9710719830354577e-06 -6.8603491839815611e-04 2.6352644449240649e-06  9.3160130983441445e-06 -7.1249754473854125e-04 2.6418762624877484e-06  9.6429996940684629e-06 -7.3920623753848157e-04 2.6457065660653797e-06  9.9966551800225488e-06 -7.6610587180263572e-04 2.6036529839431335e-06  1.0328260856506041e-05 -7.9324122356836811e-04 2.6540250540246816e-06  1.0658013772521738e-05 -8.2055870285312584e-04 2.6777301225570771e-06  1.1024712587107730e-05 -8.4810860818702871e-04 2.7150835774297173e-06  1.1367840811402075e-05 -8.7589818634242810e-04 2.7837993794807919e-06  1.1731134777162560e-05 -9.0384586729779154e-04 2.8116099323675021e-06  1.2118118475122638e-05 -9.3199169221011460e-04 2.7722349339546208e-06  1.2445603464989810e-05 -9.6026579565224729e-04 2.7915143479553396e-06  1.2832431599242316e-05 -9.8871999848378187e-04 2.7969111949364013e-06  1.3176798261684182e-05 -1.0173262547954914e-03 2.8159904891982950e-06  1.3540862257254642e-05 -1.0460426601773549e-03 2.8436929614111508e-06  1.3899074611931839e-05 -1.0749052192356365e-03 2.9010170379461461e-06  1.4291452634216135e-05 -1.1038919339799221e-03 2.9155416190170086e-06  1.4674258108763030e-05 -1.1329861519227850e-03 2.8892058280147496e-06  1.5024882836233363e-05 -1.1621987450837784e-03 2.9005602512312943e-06  1.5388623686463381e-05 -1.1915400453812619e-03 2.9547983693399342e-06  1.5793551808587972e-05 -1.2209923741770606e-03 2.9546993414978520e-06  1.6178393394665239e-05 -1.2505445948069996e-03 2.9405034490553741e-06  1.6545498225871856e-05 -1.2801833066486479e-03 2.9446568282409796e-06  1.6921126132953281e-05 -1.3098914531478078e-03 2.9799993320384082e-06  1.7296854499448970e-05 -1.3396824513031023e-03 2.9997977199163248e-06  1.7694732881752583e-05 -1.3695268102268566e-03 3.0032936251988949e-06  1.8068613243350154e-05 -1.3994540930796497e-03 3.0123608893914792e-06  1.8465361659419823e-05 -1.4294414325496966e-03 3.0158338604797192e-06  1.8855073149188097e-05 -1.4594896113341220e-03 3.0029677127007415e-06  1.9232410988044061e-05 -1.4896038539862430e-03 3.0073605094694761e-06  1.9614771287949157e-05 -1.5197561304391789e-03 3.0317488518536792e-06  1.9998920182390213e-05 -1.5499514690640484e-03 3.0382948822872332e-06  2.0392909182704733e-05 -1.5801975111158146e-03 3.0452955903753997e-06  2.0781884694534265e-05 -1.6104726916693444e-03 3.0449090798344692e-06  2.1169980160337171e-05 -1.6407803168798319e-03 3.0481325937757094e-06  2.1563972598476478e-05 -1.6711212792679775e-03 3.0447564214160184e-06  2.1953038731010632e-05 -1.7014894303904358e-03 3.0490843550039801e-06  2.2340435837950890e-05 -1.7318833344763275e-03 3.0560340368268349e-06  2.2728316656362718e-05 -1.7622921127582575e-03 3.0635725554535381e-06  2.3123664840081736e-05 -1.7927243586149679e-03 3.0665918014310350e-06  2.3512747947094502e-05 -1.8231690575394514e-03 3.0673035162450783e-06  2.3905973571635615e-05 -1.8536284788340282e-03 3.0685652394979765e-06  2.4298342233029117e-05 -1.8840990765590223e-03 3.0683739616712622e-06  2.4691611795951751e-05 -1.9145809742014456e-03 3.0680036647171356e-06  2.5082446144037741e-05 -1.9450706827542363e-03 3.0713861843131559e-06  2.5473011251926164e-05 -1.9755677260287758e-03 3.0738342824669114e-06  2.5866593253620230e-05 -2.0060704212150212e-03 3.0743521293592492e-06  2.6259931748709455e-05 -2.0365759028447999e-03 3.0741355717287663e-06  2.6652550856833162e-05 -2.0670847129263519e-03 3.0752461323696416e-06  2.7043873936358673e-05 -2.0975949936033679e-03 3.0765046549638039e-06  2.7436318753729930e-05 -2.1281067459588110e-03 3.0768533633461303e-06  2.7829171194298528e-05 -2.1586191117723935e-03 3.0769760493485403e-06  2.8221875575923850e-05 -2.1891307079071267e-03 3.0770815016256247e-06  2.8614042497977655e-05 -2.2196418527370919e-03 3.0768962000282963e-06  2.9006746258456194e-05 -2.2501523547633923e-03 3.0769782693030343e-06  2.9398981461297557e-05 -2.2806619694345793e-03 3.0769866960374875e-06  2.9875676175002682e-05 -2.3224882287327551e-03 -3.6120071062256263e-06  2.9924494979174690e-05 -2.3221622616321222e-03 1.3039089985117764e-06  2.9969927272778808e-05 -2.3218312284904903e-03 5.8226163794447323e-06  3.0013370332119133e-05 -2.3214967645867552e-03 1.0153143167057271e-05  3.0054234298228927e-05 -2.3211611874412803e-03 1.4267244983447942e-05  3.0091766601435327e-05 -2.3208258499331186e-03 1.8094721051773377e-05  3.0128380752892601e-05 -2.3204900871998139e-03 2.1836661038596239e-05  3.0162792994231966e-05 -2.3201540312857544e-03 2.5350662387308817e-05  3.0193848596246692e-05 -2.3198174663386167e-03 2.8581739946548617e-05  3.0223472915832439e-05 -2.3194805273410424e-03 3.1623973272064537e-05  3.0250623047147322e-05 -2.3191416210885012e-03 3.4476165971144068e-05  3.0274923248783961e-05 -2.3188015480133137e-03 3.7017315009569097e-05  3.0296364230095994e-05 -2.3184599181095048e-03 3.9317307103803728e-05  3.0315427565122275e-05 -2.3181185061522057e-03 4.1356469740423447e-05  3.0330943088085893e-05 -2.3177750663714971e-03 4.3092378203416264e-05  3.0343824793155195e-05 -2.3174308706558049e-03 4.4512618265013238e-05  3.0354279730063434e-05 -2.3170850815441082e-03 4.5743522535473284e-05  3.0362846299156834e-05 -2.3167378754873789e-03 4.6781379338599369e-05  3.0368807805365383e-05 -2.3163890317989765e-03 4.7554723966896468e-05  3.0371782918273121e-05 -2.3160390755348681e-03 4.8069069419723086e-05  3.0373652765210078e-05 -2.3156882343671110e-03 4.8498213161641111e-05  3.0372479380374745e-05 -2.3153358951407215e-03 4.8649930981253414e-05  3.0369931236972182e-05 -2.3149820071730982e-03 4.8666067267040413e-05  3.0365448307905492e-05 -2.3146267278576775e-03 4.8491894323934353e-05  3.0356930339468297e-05 -2.3142705185728494e-03 4.8002981954614916e-05  3.0344666341278900e-05 -2.3139130646938487e-03 4.7208555131173146e-05  3.0327492711278081e-05 -2.3135545638450789e-03 4.5999435598443618e-05  3.0306871809189128e-05 -2.3131950696540391e-03 4.4506644246547580e-05  3.0280612385103471e-05 -2.3128347529046264e-03 4.2581456848091093e-05  3.0246673646591249e-05 -2.3124740669999079e-03 4.0041292187434538e-05  3.0202321560387973e-05 -2.3121142568870512e-03 3.6654546599896494e-05  3.0140398574950628e-05 -2.3117561576798426e-03 3.1790446672167304e-05  3.0042690154569424e-05 -2.3114061916009662e-03 2.3947980470705750e-05  -1.2211554568230595e-07 1.1631612781869691e-07 -3.6644568116053529e-08  -2.3169354142943333e-07 -2.1243245967877833e-07 -1.4061827616431282e-07  -2.7197499424111182e-07 -8.0945233777080596e-07 -3.8559432037826332e-07  -2.1048672193965639e-07 -2.8546280924993086e-06 -7.8634542755060554e-07  -1.8112336225263133e-08 -5.1541756264830409e-06 -1.1477383616879114e-06  5.8551749328090063e-08 -7.7499049850328436e-06 -1.2612215998961170e-06  1.3212883156531686e-07 -1.2669333532023699e-05 -1.4274325429202104e-06  2.3790296492919412e-07 -1.7857353453305712e-05 -1.6150380471591880e-06  1.7616702372493494e-07 -2.3858249655291602e-05 -1.7740901420418224e-06  3.0599046455093971e-07 -3.0741602246962121e-05 -2.1052871113389842e-06  6.1309315082133496e-07 -3.8781394292973624e-05 -2.5386327485906593e-06  9.1175502793243856e-07 -4.7177907564808380e-05 -2.9778169674666795e-06  1.2541918992125972e-06 -5.5983340137914649e-05 -3.3917765181743325e-06  1.2267755347773069e-06 -6.7268379390399895e-05 -3.4441896987832621e-06  1.4522923829506301e-06 -7.9252824480865653e-05 -3.6320574648272990e-06  1.5729595065409822e-06 -9.1363628023437290e-05 -3.9252329680762570e-06  1.7579828934480472e-06 -1.0472836492701786e-04 -4.1844986003256972e-06  1.9194708913210094e-06 -1.1922140733469061e-04 -4.6010099957536192e-06  2.0839937200328199e-06 -1.3469251197177032e-04 -5.0477249722395938e-06  2.3437788612648865e-06 -1.5109773074381482e-04 -5.1492664653230039e-06  2.4543566401795125e-06 -1.6810654432103584e-04 -5.2413805335624129e-06  2.6598657528642569e-06 -1.8534796256881270e-04 -5.4129174271968277e-06  2.9055348639552896e-06 -2.0304094977820008e-04 -5.5333932130975114e-06  3.1103136841984592e-06 -2.2141834246620592e-04 -5.7315508166200872e-06  3.3891077316846958e-06 -2.4033106750531022e-04 -5.9591484724970990e-06  3.5940535422396043e-06 -2.5982882811791325e-04 -5.9756714202251086e-06  3.8517957637806451e-06 -2.8003537548922000e-04 -6.3286105012075872e-06  4.0713317373205746e-06 -3.0106653471820321e-04 -6.4836248288429857e-06  4.3381425695117491e-06 -3.2235104227042145e-04 -6.6500754971041804e-06  4.6948869228227819e-06 -3.4414883190883968e-04 -6.8462544129096967e-06  4.9968150483313793e-06 -3.6605925643202548e-04 -6.9407708691534999e-06  5.2667192023390706e-06 -3.8835286457553699e-04 -6.9596386017819393e-06  5.5723977504200325e-06 -4.1114693583766662e-04 -7.1256086494896413e-06  5.8422051528465719e-06 -4.3442596203726208e-04 -7.2737108451176162e-06  6.1120386550663568e-06 -4.5823044478595005e-04 -7.2742152451638279e-06  6.4375661027057471e-06 -4.8219695732531912e-04 -7.4647012037380953e-06  6.7865216917818065e-06 -5.0626153273428077e-04 -7.4808681992063095e-06  7.1267353296134937e-06 -5.3106353966173752e-04 -7.5866133182493027e-06  7.4166409646972439e-06 -5.5617847464131437e-04 -7.7371920357704123e-06  7.7546404044162276e-06 -5.8155514237153187e-04 -7.8470582483436107e-06  8.0569108502358395e-06 -6.0762243755775104e-04 -7.9730871330066388e-06  8.3789080387173074e-06 -6.3383121165592777e-04 -8.0397526639263749e-06  8.7087765874955467e-06 -6.6026903743284231e-04 -8.1347089572989243e-06  9.0457294965059107e-06 -6.8681200537303532e-04 -8.1554797633693323e-06  9.3880151120473241e-06 -7.1372646514291900e-04 -8.1823806950737390e-06  9.7295896022605551e-06 -7.4076025588455056e-04 -8.2567352397459562e-06  1.0043486702838524e-05 -7.6811343341049939e-04 -8.3099604127050287e-06  1.0393024718681975e-05 -7.9553918863497065e-04 -8.3510924956387051e-06  1.0716694562898776e-05 -8.2318619441127988e-04 -8.4447010601351736e-06  1.1106473892437531e-05 -8.5114127583972414e-04 -8.5055379995045949e-06  1.1458740474933879e-05 -8.7926394190004106e-04 -8.5531378176064000e-06  1.1793182175627552e-05 -9.0756194177702895e-04 -8.6378443309470542e-06  1.2150628145536205e-05 -9.3603545936637913e-04 -8.6974247580419715e-06  1.2516434818427878e-05 -9.6468473722089506e-04 -8.7014998193641809e-06  1.2867980305822943e-05 -9.9347791585641392e-04 -8.7611897054685933e-06  1.3233993325710621e-05 -1.0224296615487145e-03 -8.8054651554512404e-06  1.3619249826010231e-05 -1.0514260574295672e-03 -8.8363624381094469e-06  1.3972979771448088e-05 -1.0807287877670853e-03 -8.8731150572299090e-06  1.4324135467905450e-05 -1.1101823138471656e-03 -8.8996473813550043e-06  1.4683257038406776e-05 -1.1396919308078539e-03 -8.9464466406391128e-06  1.5054170913326106e-05 -1.1692494768309936e-03 -8.9743513368456680e-06  1.5435713505760484e-05 -1.1988972234917993e-03 -8.9973970951816697e-06  1.5824245378397627e-05 -1.2285494163237151e-03 -9.0195429378745852e-06  1.6206148938215019e-05 -1.2582763108862469e-03 -9.0271518818663605e-06  1.6589884215592729e-05 -1.2880488042223796e-03 -9.0536179223250138e-06  1.6966370792656812e-05 -1.3179912249249145e-03 -9.0677400550631596e-06  1.7352980144891027e-05 -1.3479464337048676e-03 -9.0817100463499517e-06  1.7735982484394678e-05 -1.3779921360873868e-03 -9.1006455976704832e-06  1.8113475989689572e-05 -1.4081443173193857e-03 -9.1222806984193897e-06  1.8500795933687186e-05 -1.4383519797944082e-03 -9.1334305053238187e-06  1.8868797562731776e-05 -1.4686411274563232e-03 -9.1581264468238023e-06  1.9263112305169391e-05 -1.4989096883077841e-03 -9.1667429570709836e-06  1.9650112712751265e-05 -1.5292438674938207e-03 -9.1731949255863753e-06  2.0036699755484554e-05 -1.5595859403565808e-03 -9.1836387173132127e-06  2.0418450098612840e-05 -1.5900055286753559e-03 -9.1959755284924530e-06  2.0804228667411689e-05 -1.6204318216406124e-03 -9.2050286193158888e-06  2.1194325583706091e-05 -1.6508911369864821e-03 -9.2052415093516433e-06  2.1581423890334362e-05 -1.6813623032749722e-03 -9.2069445300240941e-06  2.1970089782586569e-05 -1.7118668712596239e-03 -9.2121268331349176e-06  2.2359276383826721e-05 -1.7423849227921979e-03 -9.2153297058621035e-06  2.2749964652224601e-05 -1.7729044406734967e-03 -9.2171214688715924e-06  2.3139650973294729e-05 -1.8034408408831460e-03 -9.2213271781668175e-06  2.3530757550137902e-05 -1.8339771786537742e-03 -9.2245288521212057e-06  2.3925066615363737e-05 -1.8645275578257055e-03 -9.2220586555119601e-06  2.4318342080034712e-05 -1.8950850631967127e-03 -9.2211679201945173e-06  2.4707410115097094e-05 -1.9256516346428760e-03 -9.2202230187487404e-06  2.5098341974005414e-05 -1.9562193600803890e-03 -9.2210857315092113e-06  2.5490976528025335e-05 -1.9867824061662138e-03 -9.2204434175806598e-06  2.5884992073191634e-05 -2.0173454683999536e-03 -9.2192042686376722e-06  2.6276262821327924e-05 -2.0479151311763632e-03 -9.2192222652772919e-06  2.6669076056191671e-05 -2.0784740716598615e-03 -9.2161407266469031e-06  2.7063543660834746e-05 -2.1090241590330980e-03 -9.2157762317679808e-06  2.7457329572589405e-05 -2.1395725393192483e-03 -9.2147512367191081e-06  2.7850791013173961e-05 -2.1701205702562374e-03 -9.2129626082883076e-06  2.8244831202059265e-05 -2.2006627414913062e-03 -9.2119164215730932e-06  2.8637712766005685e-05 -2.2312030901265657e-03 -9.2100108512066942e-06  2.9031115701962202e-05 -2.2617436831993045e-03 -9.2093708949493858e-06  2.9425329708464839e-05 -2.2922771563173711e-03 -9.2097440789513020e-06  2.9551612428166040e-05 -2.3114251701375961e-03 -1.7312348173418312e-05  2.9443280077563700e-05 -2.3117720478467189e-03 -2.6801672303600953e-05  2.9381434300616861e-05 -2.3121299454489336e-03 -3.2436546336010394e-05  2.9335661176858346e-05 -2.3124897422957687e-03 -3.6735827357522201e-05  2.9301003294538602e-05 -2.3128500227764196e-03 -4.0140869535907109e-05  2.9274300483145525e-05 -2.3132100984959345e-03 -4.2937911456029397e-05  2.9252708700091508e-05 -2.3135694011352744e-03 -4.5320535287178833e-05  2.9237846847001592e-05 -2.3139276876896200e-03 -4.7185177636950928e-05  2.9227333653347504e-05 -2.3142851259965718e-03 -4.8672984099102885e-05  2.9221470966778502e-05 -2.3146414037083568e-03 -4.9833199180736488e-05  2.9219221349899255e-05 -2.3149962604049664e-03 -5.0689952847983067e-05  2.9219650872600041e-05 -2.3153500370894451e-03 -5.1318368037747256e-05  2.9223342254882595e-05 -2.3157024774125819e-03 -5.16690790