<?xml version="1.0"?>
<VTKFile type="UnstructuredGrid"  version="0.1"  >
<UnstructuredGrid>
<Piece  NumberOfPoints="10958" NumberOfCells="41820">
<Points>
<DataArray  type="Float64"  NumberOfComponents="3"  format="ascii">1 0.04955 0  3.483770450905253e-06 0.04864772283650545 0  3.483770450905253e-06 0.04864772283650545 2.95  1 0.04955 2.95  0.9705745651584323 0.0546328692740541 0  0.9410403409854562 0.05904933268918263 0  0.9114506936029688 0.06307764259166145 0  0.8818365365778597 0.06692205633990718 0  0.852195425756178 0.07055529100758898 0  0.8225213484314672 0.07390813590379837 0  0.7928382076274137 0.07717791230068967 0  0.7631311412584285 0.08022519712851128 0  0.7333970986343074 0.08299595685799818 0  0.7036468593402103 0.08558339900696151 0  0.6738808305098906 0.08798485813956464 0  0.6440919092681797 0.09008334865923617 0  0.6142870835549664 0.09194561288677774 0  0.5844675933514397 0.09355367701932085 0  0.5546335832429207 0.09486496269114339 0  0.5247876530181904 0.095868659884793 0  0.4949363523436856 0.09668736484019783 0  0.4650802095563029 0.09731740696399105 0  0.4352195800941197 0.09768943189876603 0  0.405357042743103 0.09780828360274334 0  0.3754942534896675 0.09784351677757946 0  0.3456322298379585 0.09760772238205492 0  0.3157719755355017 0.09723970101506153 0  0.2859142869264596 0.09668561931752166 0  0.2560638915081948 0.09582390318294828 0  0.2262236143831659 0.09466390431188013 0  0.1964020995566796 0.09309886371899376 0  0.1665963941161298 0.09125714074218327 0  0.1368197180220126 0.08899319787719009 0  0.1070946678970156 0.08612945256268216 0  0.07746305623222323 0.08244010579101241 0  0.04805012948181673 0.07731042839253653 0  0.01932358256457366 0.06928107812002522 0  3.483770450905253e-06 0.04864772283650545 0.02979797979797999  3.483770450905253e-06 0.04864772283650545 0.05959595959595966  3.483770450905253e-06 0.04864772283650545 0.08939393939393965  3.483770450905253e-06 0.04864772283650545 0.1191919191919193  3.483770450905253e-06 0.04864772283650545 0.1489898989898993  3.483770450905253e-06 0.04864772283650545 0.178787878787879  3.483770450905253e-06 0.04864772283650545 0.2085858585858589  3.483770450905253e-06 0.04864772283650545 0.2383838383838386  3.483770450905253e-06 0.04864772283650545 0.2681818181818186  3.483770450905253e-06 0.04864772283650545 0.2979797979797986  3.483770450905253e-06 0.04864772283650545 0.3277777777777782  3.483770450905253e-06 0.04864772283650545 0.3575757575757582  3.483770450905253e-06 0.04864772283650545 0.3873737373737379  3.483770450905253e-06 0.04864772283650545 0.4171717171717179  3.483770450905253e-06 0.04864772283650545 0.4469696969696979  3.483770450905253e-06 0.04864772283650545 0.4767676767676775  3.483770450905253e-06 0.04864772283650545 0.5065656565656572  3.483770450905253e-06 0.04864772283650545 0.5363636363636372  3.483770450905253e-06 0.04864772283650545 0.5661616161616169  3.483770450905254e-06 0.04864772283650545 0.5959595959595969  3.483770450905253e-06 0.04864772283650545 0.6257575757575765  3.483770450905254e-06 0.04864772283650545 0.6555555555555564  3.483770450905253e-06 0.04864772283650545 0.6853535353535362  3.483770450905253e-06 0.04864772283650545 0.7151515151515158  3.483770450905253e-06 0.04864772283650545 0.7449494949494958  3.483770450905253e-06 0.04864772283650545 0.7747474747474755  3.483770450905253e-06 0.04864772283650545 0.8045454545454552  3.483770450905253e-06 0.04864772283650545 0.8343434343434351  3.483770450905253e-06 0.04864772283650545 0.8641414141414151  3.483770450905253e-06 0.04864772283650545 0.8939393939393945  3.483770450905254e-06 0.04864772283650545 0.9237373737373745  3.483770450905253e-06 0.04864772283650545 0.9535353535353545  3.483770450905254e-06 0.04864772283650545 0.9833333333333341  3.483770450905253e-06 0.04864772283650545 1.013131313131314  3.483770450905254e-06 0.04864772283650545 1.042929292929294  3.483770450905253e-06 0.04864772283650545 1.072727272727274  3.483770450905254e-06 0.04864772283650545 1.102525252525254  3.483770450905253e-06 0.04864772283650545 1.132323232323234  3.483770450905254e-06 0.04864772283650545 1.162121212121214  3.483770450905253e-06 0.04864772283650545 1.191919191919194  3.483770450905254e-06 0.04864772283650545 1.221717171717174  3.483770450905253e-06 0.04864772283650545 1.251515151515153  3.483770450905254e-06 0.04864772283650545 1.281313131313133  3.483770450905253e-06 0.04864772283650545 1.311111111111113  3.483770450905253e-06 0.04864772283650545 1.340909090909093  3.483770450905253e-06 0.04864772283650545 1.370707070707073  3.483770450905253e-06 0.04864772283650545 1.400505050505053  3.483770450905253e-06 0.04864772283650545 1.430303030303033  3.483770450905253e-06 0.04864772283650545 1.460101010101013  3.483770450905253e-06 0.04864772283650545 1.489898989898993  3.483770450905253e-06 0.04864772283650545 1.519696969696973  3.483770450905253e-06 0.04864772283650545 1.549494949494953  3.483770450905253e-06 0.04864772283650545 1.579292929292933  3.483770450905253e-06 0.04864772283650545 1.609090909090913  3.483770450905253e-06 0.04864772283650545 1.638888888888893  3.483770450905254e-06 0.04864772283650545 1.668686868686872  3.483770450905253e-06 0.04864772283650545 1.698484848484852  3.483770450905254e-06 0.04864772283650545 1.728282828282832  3.483770450905253e-06 0.04864772283650545 1.758080808080812  3.483770450905254e-06 0.04864772283650545 1.787878787878792  3.483770450905253e-06 0.04864772283650545 1.817676767676772  3.483770450905254e-06 0.04864772283650545 1.847474747474752  3.483770450905253e-06 0.04864772283650545 1.877272727272732  3.483770450905254e-06 0.04864772283650545 1.907070707070712  3.483770450905253e-06 0.04864772283650545 1.936868686868691  3.483770450905253e-06 0.04864772283650545 1.966666666666671  3.483770450905253e-06 0.04864772283650545 1.996464646464651  3.483770450905253e-06 0.04864772283650545 2.02626262626263  3.483770450905253e-06 0.04864772283650545 2.056060606060611  3.483770450905253e-06 0.04864772283650545 2.08585858585859  3.483770450905254e-06 0.04864772283650545 2.11565656565657  3.483770450905253e-06 0.04864772283650545 2.14545454545455  3.483770450905253e-06 0.04864772283650545 2.175252525252529  3.483770450905253e-06 0.04864772283650545 2.205050505050508  3.483770450905253e-06 0.04864772283650545 2.234848484848488  3.483770450905253e-06 0.04864772283650545 2.264646464646468  3.483770450905253e-06 0.04864772283650545 2.294444444444448  3.483770450905253e-06 0.04864772283650545 2.324242424242427  3.483770450905253e-06 0.04864772283650545 2.354040404040407  3.483770450905253e-06 0.04864772283650545 2.383838383838387  3.483770450905254e-06 0.04864772283650545 2.413636363636366  3.483770450905253e-06 0.04864772283650545 2.443434343434346  3.483770450905253e-06 0.04864772283650545 2.473232323232326  3.483770450905253e-06 0.04864772283650545 2.503030303030305  3.483770450905253e-06 0.04864772283650545 2.532828282828285  3.483770450905253e-06 0.04864772283650545 2.562626262626264  3.483770450905253e-06 0.04864772283650545 2.592424242424244  3.483770450905254e-06 0.04864772283650545 2.622222222222224  3.483770450905253e-06 0.04864772283650545 2.652020202020203  3.483770450905253e-06 0.04864772283650545 2.681818181818183  3.483770450905253e-06 0.04864772283650545 2.711616161616163  3.483770450905253e-06 0.04864772283650545 2.741414141414142  3.483770450905254e-06 0.04864772283650545 2.771212121212122  3.483770450905253e-06 0.04864772283650545 2.801010101010102  3.483770450905253e-06 0.04864772283650545 2.830808080808081  3.483770450905253e-06 0.04864772283650545 2.860606060606061  3.483770450905253e-06 0.04864772283650545 2.890404040404041  3.483770450905253e-06 0.04864772283650545 2.92020202020202  0.9705745651584323 0.0546328692740541 2.95  0.9410403409854562 0.05904933268918263 2.95  0.9114506936029688 0.06307764259166145 2.95  0.8818365365778597 0.06692205633990718 2.95  0.852195425756178 0.07055529100758898 2.95  0.8225213484314672 0.07390813590379837 2.95  0.7928382076274137 0.07717791230068967 2.95  0.7631311412584285 0.08022519712851128 2.95  0.7333970986343074 0.08299595685799818 2.95  0.7036468593402103 0.08558339900696151 2.95  0.6738808305098906 0.08798485813956464 2.95  0.6440919092681797 0.09008334865923617 2.95  0.6142870835549664 0.09194561288677774 2.95  0.5844675933514397 0.09355367701932085 2.95  0.5546335832429207 0.09486496269114339 2.95  0.5247876530181904 0.095868659884793 2.95  0.4949363523436856 0.09668736484019783 2.95  0.4650802095563029 0.09731740696399105 2.95  0.4352195800941197 0.09768943189876603 2.95  0.405357042743103 0.09780828360274334 2.95  0.3754942534896675 0.09784351677757946 2.95  0.3456322298379585 0.09760772238205492 2.95  0.3157719755355017 0.09723970101506153 2.95  0.2859142869264596 0.09668561931752166 2.95  0.2560638915081948 0.09582390318294828 2.95  0.2262236143831659 0.09466390431188013 2.95  0.1964020995566796 0.09309886371899376 2.95  0.1665963941161298 0.09125714074218327 2.95  0.1368197180220126 0.08899319787719009 2.95  0.1070946678970156 0.08612945256268216 2.95  0.07746305623222323 0.08244010579101241 2.95  0.04805012948181673 0.07731042839253653 2.95  0.01932358256457366 0.06928107812002522 2.95  1 0.04955 0.02979797979797999  1 0.04955 0.05959595959595966  1 0.04955 0.08939393939393965  1 0.04955 0.1191919191919193  1 0.04955 0.1489898989898993  1 0.04955 0.178787878787879  1 0.04955 0.2085858585858589  1 0.04955 0.2383838383838386  1 0.04955 0.2681818181818186  1 0.04955 0.2979797979797986  1 0.04955 0.3277777777777782  1 0.04955 0.3575757575757582  1 0.04955 0.3873737373737379  1 0.04955 0.4171717171717179  1 0.04955 0.4469696969696979  1 0.04955 0.4767676767676775  1 0.04955 0.5065656565656572  1 0.04955 0.5363636363636372  1 0.04955 0.5661616161616169  1 0.04955 0.5959595959595969  1 0.04955 0.6257575757575765  1 0.04955 0.6555555555555564  1 0.04955 0.6853535353535362  1 0.04955 0.7151515151515158  1 0.04955 0.7449494949494958  1 0.04955 0.7747474747474755 
[...]
<PointData  Vectors="Displacement"> 
<DataArray  type="Float64"  Name="Displacement"  NumberOfComponents="3" format="ascii">0.0000000000000000e+00 0.0000000000000000e+00 0.0000000000000000e+00  0.0000000000000000e+00 0.0000000000000000e+00 0.0000000000000000e+00  7.7733931167044197e-05 -5.9081622251632776e-03 8.4478202156137855e-06  7.7834910576362454e-05 -5.9330876389729675e-03 -2.4902815275452796e-05  0.0000000000000000e+00 0.0000000000000000e+00 0.0000000000000000e+00  0.0000000000000000e+00 0.0000000000000000e+00 0.0000000000000000e+00  0.0000000000000000e+00 0.0000000000000000e+00 0.0000000000000000e+00  0.0000000000000000e+00 0.0000000000000000e+00 0.0000000000000000e+00  0.0000000000000000e+00 0.0000000000000000e+00 0.0000000000000000e+00  0.0000000000000000e+00 0.0000000000000000e+00 0.0000000000000000e+00  0.0000000000000000e+00 0.0000000000000000e+00 0.0000000000000000e+00  0.0000000000000000e+00 0.0000000000000000e+00 0.0000000000000000e+00  0.0000000000000000e+00 0.0000000000000000e+00 0.0000000000000000e+00  0.0000000000000000e+00 0.0000000000000000e+00 0.0000000000000000e+00  0.0000000000000000e+00 0.0000000000000000e+00 0.0000000000000000e+00  0.0000000000000000e+00 0.0000000000000000e+00 0.0000000000000000e+00  0.0000000000000000e+00 0.0000000000000000e+00 0.0000000000000000e+00  0.0000000000000000e+00 0.0000000000000000e+00 0.0000000000000000e+00  0.0000000000000000e+00 0.0000000000000000e+00 0.0000000000000000e+00  0.0000000000000000e+00 0.0000000000000000e+00 0.0000000000000000e+00  0.0000000000000000e+00 0.0000000000000000e+00 0.0000000000000000e+00  0.0000000000000000e+00 0.0000000000000000e+00 0.0000000000000000e+00  0.0000000000000000e+00 0.0000000000000000e+00 0.0000000000000000e+00  0.0000000000000000e+00 0.0000000000000000e+00 0.0000000000000000e+00  0.0000000000000000e+00 0.0000000000000000e+00 0.0000000000000000e+00  0.0000000000000000e+00 0.0000000000000000e+00 0.0000000000000000e+00  0.0000000000000000e+00 0.0000000000000000e+00 0.0000000000000000e+00  0.0000000000000000e+00 0.0000000000000000e+00 0.0000000000000000e+00  0.0000000000000000e+00 0.0000000000000000e+00 0.0000000000000000e+00  0.0000000000000000e+00 0.0000000000000000e+00 0.0000000000000000e+00  0.0000000000000000e+00 0.0000000000000000e+00 0.0000000000000000e+00  0.0000000000000000e+00 0.0000000000000000e+00 0.0000000000000000e+00  0.0000000000000000e+00 0.0000000000000000e+00 0.0000000000000000e+00  0.0000000000000000e+00 0.0000000000000000e+00 0.0000000000000000e+00  0.0000000000000000e+00 0.0000000000000000e+00 0.0000000000000000e+00  0.0000000000000000e+00 0.0000000000000000e+00 0.0000000000000000e+00  0.0000000000000000e+00 0.0000000000000000e+00 0.0000000000000000e+00  -5.1272728098870402e-08 1.1297141771758072e-06 1.4161251763827909e-07  1.3034872391042148e-07 6.0098320012088440e-07 5.9707507375976438e-07  3.3327529255188082e-07 -1.6551819128170870e-06 1.1193955544544342e-06  5.5778976843479061e-07 -6.1280188638995811e-06 1.2758619110622475e-06  5.3548640594831556e-07 -1.2779452803629562e-05 1.4740582832100612e-06  8.2028759508371471e-07 -2.1816596100467391e-05 1.6153542989116258e-06  9.5716180170910840e-07 -3.3438725494509866e-05 1.6514895997111266e-06  1.0846435446401904e-06 -4.6955706705145467e-05 2.1281434897327061e-06  1.3799159554472288e-06 -6.2712146993131837e-05 2.3150330301100186e-06  1.5214494001592693e-06 -8.0894735969038508e-05 2.4651431859960601e-06  1.9333525164812893e-06 -1.0102268274516654e-04 2.6949447970790731e-06  2.3696008167898914e-06 -1.2322121364214826e-04 2.7583292239347451e-06  2.5201845868120833e-06 -1.4773704143669598e-04 2.9822761499019757e-06  2.9254367750224973e-06 -1.7396699300371442e-04 2.6722526692049226e-06  3.1249591986428274e-06 -2.0214289010794792e-04 3.1620467958051760e-06  3.6660345735111256e-06 -2.3240361247927450e-04 3.1069699693821498e-06  4.0456751924824224e-06 -2.6395452409257842e-04 3.3460738823235022e-06  4.3242325055985665e-06 -2.9816264062613334e-04 3.5757375504801732e-06  4.9657971123993681e-06 -3.3394734613870398e-04 3.8293306848342104e-06  5.3927249188304659e-06 -3.7131282947261651e-04 3.5568191425591004e-06  5.8715880546911398e-06 -4.0990995585139431e-04 4.0957261910195430e-06  6.3338160099985233e-06 -4.5005761880344459e-04 4.5950479532923897e-06  7.2036364758934777e-06 -4.9187453955508453e-04 4.6297132835577033e-06  7.5480520152842828e-06 -5.3501115481264800e-04 4.7314658818029277e-06  8.3437741877744703e-06 -5.7948323337768187e-04 4.8427430434219077e-06  9.0345768182729253e-06 -6.2534250477491119e-04 4.5886661901163986e-06  9.4105917230446301e-06 -6.7304963163519142e-04 4.5533600988509219e-06  9.9106486785268920e-06 -7.2191294021522784e-04 4.9580491124151512e-06  1.0579943829818313e-05 -7.7243502187265855e-04 5.2194750794474016e-06  1.1348305590730816e-05 -8.2406173099768194e-04 5.4223288656733952e-06  1.1982861669537720e-05 -8.7673129213559204e-04 5.5924562159497801e-06  1.2722121723871355e-05 -9.3058111089402127e-04 5.7450391012997738e-06  1.3511894059871235e-05 -9.8574259474700290e-04 5.7927119560868143e-06  1.4268527536562000e-05 -1.0421338520083402e-03 5.6321389142264536e-06  1.4849615678949706e-05 -1.0992401364099574e-03 5.7308033294143964e-06  1.5525775876385208e-05 -1.1575222477358429e-03 6.1138730944797222e-06  1.6476488977905966e-05 -1.2169247137834068e-03 6.2076471848772150e-06  1.7279108868677401e-05 -1.2773560770728441e-03 6.2174108764767059e-06  1.8074140748155962e-05 -1.3387606497844043e-03 6.0936639613074203e-06  1.8744999900166374e-05 -1.4007688266575798e-03 6.3254616029327291e-06  1.9577120728359438e-05 -1.4637641452438942e-03 6.5045008593936873e-06  2.0488714928252122e-05 -1.5279856781259468e-03 6.6893025421297965e-06  2.1218089504514961e-05 -1.5930327342617619e-03 6.8236203205071205e-06  2.2207798066066522e-05 -1.6588879945321003e-03 6.8914416306998366e-06  2.3098031794611074e-05 -1.7255976036698259e-03 6.9139031402329196e-06  2.3934194159206374e-05 -1.7930755968501313e-03 6.9280453043807223e-06  2.4846480761545261e-05 -1.8611553920792666e-03 6.7954877009904503e-06  2.5700521033953587e-05 -1.9299787216036307e-03 6.9526668890489043e-06  2.6545639973763098e-05 -1.9993845280526033e-03 7.0284485199485497e-06  2.7505473806003294e-05 -2.0695345061489895e-03 7.1450646990002926e-06  2.8397188490869044e-05 -2.1404611329962999e-03 7.3699990151155472e-06  2.9349547837844516e-05 -2.2119055691580945e-03 7.4641998267374443e-06  3.0372456002466276e-05 -2.2840063320662338e-03 7.3348505901962351e-06  3.1209951479927520e-05 -2.3565367918825116e-03 7.3988217661629384e-06  3.2238642425627715e-05 -2.4296736659485257e-03 7.4137843997791118e-06  3.3126590918797944e-05 -2.5033310471213022e-03 7.4797558814399128e-06  3.4081686277594006e-05 -2.5773672203756016e-03 7.5721604432800205e-06  3.5020982205228934e-05 -2.6519118607847680e-03 7.7719986937487565e-06  3.6076038808696035e-05 -2.7268867840118316e-03 7.8244008223986533e-06  3.7089089624317316e-05 -2.8022417027333676e-03 7.7306688160531368e-06  3.7997009625559683e-05 -2.8780193576472424e-03 7.7708566460964288e-06  3.8954998142910345e-05 -2.9542599368587953e-03 7.9656460920524097e-06  4.0055741365832394e-05 -3.0309025013937224e-03 7.9663433742700827e-06  4.1081263445477112e-05 -3.1079114512564711e-03 7.9149755435169251e-06  4.2044741445889236e-05 -3.1852416105746348e-03 7.9281198000898391e-06  4.3043784554023386e-05 -3.2628348416824295e-03 8.0606173087723815e-06  4.4039782947212458e-05 -3.3407412894395369e-03 8.1352763704976517e-06  4.5118646517555648e-05 -3.4188534892111771e-03 8.1481390292956365e-06  4.6106141818768916e-05 -3.4972839111022482e-03 8.1834478446515231e-06  4.7183393708901193e-05 -3.5759487884756769e-03 8.1979167697312029e-06  4.8229716624088984e-05 -3.6548556753488539e-03 8.1468627898459152e-06  4.9229781892643837e-05 -3.7340274183628838e-03 8.1633795962839353e-06  5.0253468090625690e-05 -3.8133526695936660e-03 8.2597172460269839e-06  5.1280057695361533e-05 -3.8928527979467400e-03 8.2865838404196966e-06  5.2346947435347979e-05 -3.9725612281772335e-03 8.3152692566760434e-06  5.3392420474147477e-05 -4.0523945101511904e-03 8.3127196554001721e-06  5.4436885042244812e-05 -4.1323651608691217e-03 8.3266849244429027e-06  5.5503230988970505e-05 -4.2124790673403068e-03 8.3119930704813712e-06  5.6549432942184324e-05 -4.2927109957529340e-03 8.3284976978894985e-06  5.7590049694956357e-05 -4.3730570984690130e-03 8.3575363922245585e-06  5.8632434907712142e-05 -4.4534705681286927e-03 8.3906436199300834e-06  5.9706331946263168e-05 -4.5339896726706063e-03 8.4037815316349443e-06  6.0752729102145578e-05 -4.6145674587666687e-03 8.4066277341455805e-06  6.1818032575754902e-05 -4.6952134138094825e-03 8.4124169258116664e-06  6.2879313096679516e-05 -4.7759122131832638e-03 8.4112083278675687e-06  6.3943776481460043e-05 -4.8566656679834685e-03 8.4087711583172414e-06  6.4998020390215697e-05 -4.9374571767848100e-03 8.4233963429624566e-06  6.6051591477492237e-05 -5.0182854083936626e-03 8.4344639788015641e-06  6.7118456060632879e-05 -5.0991426676006641e-03 8.4366989876677820e-06  6.8183755962434342e-05 -5.1800154467630949e-03 8.4351602355996078e-06  6.9245708709192899e-05 -5.2609062308371932e-03 8.4396928363649972e-06  7.0302497855051068e-05 -5.3418061278493476e-03 8.4459352538932612e-06  7.1363887719129015e-05 -5.4227151086140898e-03 8.4476133238595279e-06  7.2427463882538559e-05 -5.5036286684177647e-03 8.4480813578402843e-06  7.3490111888506262e-05 -5.5845399876262242e-03 8.4483031396569441e-06  7.4550440850653938e-05 -5.6654501494215236e-03 8.4474423025205781e-06  7.5613123167760099e-05 -5.7463580019600216e-03 8.4476764601236484e-06  7.6673694738850978e-05 -5.8272621689160649e-03 8.4477254792188752e-06  7.7945499184361571e-05 -5.9324427596288568e-03 -1.0027225990745851e-05  7.8044759390971181e-05 -5.9317808909928873e-03 3.0380152576303659e-06  7.8139148739314517e-05 -5.9310988519032486e-03 1.5049034759826020e-05  7.8229550253231366e-05 -5.9304029093013777e-03 2.6560626727482397e-05  7.8314049021777017e-05 -5.9297032827740886e-03 3.7497261825607700e-05  7.8391260523056201e-05 -5.9290060816191313e-03 4.7674014651397769e-05  7.8466617545306400e-05 -5.9283073613027844e-03 5.7622861776668308e-05  7.8538152129735661e-05 -5.9276081362041747e-03 6.6966454093323458e-05  7.8602135609758385e-05 -5.9269074683967367e-03 7.5559642332919180e-05  7.8664621663374157e-05 -5.9262056582521493e-03 8.3649640053592780e-05  7.8721055331342407e-05 -5.9254955699222607e-03 9.1236048306092747e-05  7.8772875858978305e-05 -5.9247810450379417e-03 9.7995622309023959e-05  7.8818293863552852e-05 -5.9240601539971779e-03 1.0411664971532000e-04  7.8859821559921722e-05 -5.9233408266349272e-03 1.0954476194310864e-04  7.8893519674851984e-05 -5.9226131570580560e-03 1.1416947175603847e-04  7.8923589603807959e-05 -5.9218826944818616e-03 1.1795554168634578e-04  7.8947806763367511e-05 -5.9211454837533855e-03 1.2123953683341142e-04  7.8968646724028477e-05 -5.9204024757339956e-03 1.2401171476674827e-04  7.8984752375541834e-05 -5.9196526924140160e-03 1.2608182010230256e-04  7.8994373599328309e-05 -5.9188983526758908e-03 1.2746546954687632e-04  7.9001337024782551e-05 -5.9181403652571298e-03 1.2862384837586318e-04  7.9002057462981422e-05 -5.9173760730598726e-03 1.2904671704035432e-04  7.9000190079558290e-05 -5.9166052280530609e-03 1.2910976284889438e-04  7.8994699887650110e-05 -5.9158285399931176e-03 1.2866855600841289e-04  7.8979678122752562e-05 -5.9150478107423384e-03 1.2739336350324571e-04  7.8956050552637252e-05 -5.9142615467359817e-03 1.2530805290512296e-04  7.8921514426183209e-05 -5.9134704271619574e-03 1.2212352513191787e-04  7.8879194511083077e-05 -5.9126746880252311e-03 1.1818645985421553e-04  7.8823297215321284e-05 -5.9118747406721114e-03 1.1310331442220890e-04  7.8749496837792087e-05 -5.9110719036425596e-03 1.0638913083534743e-04  7.8651668626321264e-05 -5.9102705007480485e-03 9.7429892647569148e-05  7.8514547265091074e-05 -5.9094708386800282e-03 8.4553384129423055e-05  7.8296472271633310e-05 -5.9086888283820952e-03 6.3777753566525487e-05  -2.7295557432912409e-07 6.1971096921166819e-07 -3.5473429358929666e-08  -5.0090911188241633e-07 2.1011521926075528e-07 -2.3695347541706750e-07  -5.8306463487918919e-07 -7.9052176480538334e-07 -7.6209038278005278e-07  -4.3438538096661355e-07 -4.9917019397424061e-06 -1.6623304294921800e-06  1.0562394432789991e-08 -9.7617844585396460e-06 -2.4872964518122261e-06  1.8942043558959573e-07 -1.5205302176469891e-05 -2.7476418322339250e-06  3.6106815619759036e-07 -2.5993759758719903e-05 -3.1299514381621347e-06  6.0711780680737940e-07 -3.7405641743332755e-05 -3.5634121598995975e-06  4.6126011544324888e-07 -5.0700799591571359e-05 -3.9321778866721366e-06  7.6394399786591198e-07 -6.6071659339309914e-05 -4.7117898754842387e-06  1.4891638206956187e-06 -8.4152165566853959e-05 -5.7455327283136949e-06  2.1970315198587021e-06 -1.0307601857029661e-04 -6.8008998750905597e-06  3.0131977477416627e-06 -1.2296761161534393e-04 -7.8049753273921142e-06  2.9376674364742087e-06 -1.4883136869649042e-04 -7.9351047804187854e-06  3.4754448967240082e-06 -1.7640059227221156e-04 -8.3970776650506494e-06  3.7684458669127745e-06 -2.0421907035629534e-04 -9.1148384659273152e-06  4.2131553877283304e-06 -2.3515397910983543e-04 -9.7599663341916876e-06  4.5996553946781557e-06 -2.6887631277297042e-04 -1.0803941439768941e-05  4.9906242096898983e-06 -3.0505092638729670e-04 -1.1940069625000263e-05  5.6260463316194534e-06 -3.4359059279824930e-04 -1.2213403764028511e-05  5.8746797139498579e-06 -3.8367707641321665e-04 -1.2456505142814943e-05  6.3705320112126896e-06 -4.2437350343627484e-04 -1.2906733864449061e-05  6.9702383824926321e-06 -4.6621314874390211e-04 -1.3227114138249427e-05  7.4675014889583360e-06 -5.0982941978381670e-04 -1.3751472907761502e-05  8.1563117710413900e-06 -5.5486845671147574e-04 -1.4360387068617558e-05  8.6483239842602090e-06 -6.0142318142953764e-04 -1.4410046513214688e-05  9.2802264853400896e-06 -6.4989262543342207e-04 -1.5371606141499598e-05  9.8104625796046606e-06 -7.0061235687677551e-04 -1.5798981519666843e-05  1.0466706724718509e-05 -7.5201675786450205e-04 -1.6267590113304171e-05  1.1379744555028841e-05 -8.0482430371722063e-04 -1.6828779187351118e-05  1.2135951159716837e-05 -8.5794950285601192e-04 -1.7103196280038554e-05  1.2800691280212480e-05 -9.1216118194034385e-04 -1.7163172615099492e-05  1.3578367355725162e-05 -9.6773408798259250e-04 -1.7645106505966005e-05  1.4246851533839261e-05 -1.0247176244933740e-03 -1.8071828267308245e-05  1.4904492185098794e-05 -1.0832082111598216e-03 -1.8080190402896323e-05  1.5734865928680955e-05 -1.1421419194044379e-03 -1.8640588019857735e-05  1.6624160914647298e-05 -1.2013736192036854e-03 -1.8700176513636089e-05  1.7497443956180329e-05 -1.2627048491127473e-03 -1.9028335573333391e-05  1.8226198449812496e-05 -1.3249957850002035e-03 -1.9478548568676712e-05  1.9098839265223371e-05 -1.3880402367101793e-03 -1.9824532046256521e-05  1.9868163533717652e-05 -1.4531101994264702e-03 -2.0222775410766728e-05  2.0685786560515636e-05 -1.5187278669424840e-03 -2.0433119803849901e-05  2.1540847593325740e-05 -1.5850300189574724e-03 -2.0743332206333807e-05  2.2405146662472575e-05 -1.6516433009810122e-03 -2.0824784003900821e-05  2.3285242751188540e-05 -1.7194798492878788e-03 -2.0919231723529888e-05  2.4171481797244712e-05 -1.7877067406376602e-03 -2.1168573846711002e-05  2.4963024760042589e-05 -1.8569391612600658e-03 -2.1339899696207377e-05  2.5866589799368581e-05 -1.9264331529234970e-03 -2.1482508198361437e-05  2.6700111089950656e-05 -1.9965676566270673e-03 -2.1790240383186822e-05  2.7736581236773569e-05 -2.0677321502272834e-03 -2.2005387809186745e-05  2.8649961061491477e-05 -2.1394571627207557e-03 -2.2170787931719412e-05  2.9523735294287373e-05 -2.2117610158742126e-03 -2.2469470712939026e-05  3.0456058393217007e-05 -2.2847219701727121e-03 -2.2679776739535329e-05  3.1411688779637629e-05 -2.3582696507063483e-03 -2.2702676995628781e-05  3.2325042274588791e-05 -2.4322795272801651e-03 -2.2916275321890255e-05  3.3291937060648426e-05 -2.5068841413537629e-03 -2.3082745892546350e-05  3.4321690198867201e-05 -2.5816260264213769e-03 -2.3205502099668008e-05  3.5249767879730884e-05 -2.6573719986393842e-03 -2.3341442128168734e-05  3.6165434455673196e-05 -2.7337550900648341e-03 -2.3456866641945084e-05  3.7102209019877556e-05 -2.8104066997090985e-03 -2.3638582262001756e-05  3.8077119207158462e-05 -2.8872556771881489e-03 -2.3747688348321121e-05  3.9093133581998666e-05 -2.9644326497491914e-03 -2.3844124597651919e-05  4.0138498475758325e-05 -3.0416288130220553e-03 -2.3941958653854423e-05  4.1155189564759304e-05 -3.1191204150569992e-03 -2.3978953852529785e-05  4.2184650927901154e-05 -3.1967889396264516e-03 -2.4091085889766518e-05  4.3179422559217314e-05 -3.2751240674202368e-03 -2.4148307767683314e-05  4.4215590523229284e-05 -3.3535209687965938e-03 -2.4210478337319095e-05  4.5240174267216347e-05 -3.4322553570008281e-03 -2.4292659524277555e-05  4.6243550815297755e-05 -3.5114042567559131e-03 -2.4383926703834103e-05  4.7287469982463527e-05 -3.5907711888460894e-03 -2.4441274834640470e-05  4.8256643536118180e-05 -3.6704678509917100e-03 -2.4545767635200949e-05  4.9323355917818650e-05 -3.7501374982984404e-03 -2.4590434036672980e-05  5.0358937696350419e-05 -3.8300858654015152e-03 -2.4622152980016258e-05  5.1397341838391160e-05 -3.9100746626973826e-03 -2.4675453056833650e-05  5.2419486188067691e-05 -3.9903855373506058e-03 -2.4739856535673099e-05  5.3454117785231865e-05 -4.0707419384004434e-03 -2.4786796446288294e-05  5.4508151861242474e-05 -4.1512591547429260e-03 -2.4798289809346770e-05  5.5547306656195658e-05 -4.2318287607201405e-03 -2.4811314831811310e-05  5.6591791144885275e-05 -4.3125707667093713e-03 -2.4840099965904853e-05  5.7637780601310333e-05 -4.3933952741799422e-03 -2.4860407502921410e-05  5.8692449579826980e-05 -4.4742284501448088e-03 -2.4876413189058499e-05  5.9742759818190833e-05 -4.5551354507034365e-03 -2.4899488298600403e-05  6.0797774009407749e-05 -4.6360610440528485e-03 -2.4919615377143397e-05  6.1868584077660923e-05 -4.7170542656171923e-03 -2.4915286658094412e-05  6.2935863437786973e-05 -4.7980746346909719e-03 -2.4920013135312786e-05  6.3986406307484220e-05 -4.8791628302523116e-03 -2.4922788007030142e-05  6.5040559451907219e-05 -4.9602764767467996e-03 -2.4931395093198222e-05  6.6102882854814115e-05 -5.0413785068620775e-03 -2.4931431810907004e-05  6.7171345346640836e-05 -5.1224832347464277e-03 -2.4928670608974055e-05  6.8228112939964765e-05 -5.2036233533976342e-03 -2.4932338602514589e-05  6.9291182363930202e-05 -5.2847308367092458e-03 -2.4923393671155853e-05  7.0361112963839820e-05 -5.3658062906356239e-03 -2.4923380006111656e-05  7.1428679210341868e-05 -5.4468753545887606e-03 -2.4920371502198445e-05  7.2495033929728848e-05 -5.5279446636672747e-03 -2.4914137072434592e-05  7.3563594651205312e-05 -5.6089909397039070e-03 -2.4910470578867669e-05  7.4627402438420291e-05 -5.6900302197100405e-03 -2.4902896626152146e-05  7.5693231356993779e-05 -5.7710705405422105e-03 -2.4900416812003256e-05  7.6762362782343088e-05 -5.8520813902260098e-03 -2.4902077172446239e-05  7.7198284475054870e-05 -5.9087312579116187e-03 -4.5632766449494528e-05  7.6956468247166572e-05 -5.9095065831100690e-03 -7.0814400297444758e-05  7.6819552910267915e-05 -5.9103054169093241e-03 -8.5775282966412018e-05  7.6718823928903761e-05 -5.9111071585277071e-03 -9.7194265117267568e-05  7.6643876019571490e-05 -5.9119084552075405e-03 -1.0624268169974912e-04  7.6588127981063104e-05 -5.9127075825448966e-03 -1.1367797921963957e-04  7.6544113682209741e-05 -5.9135026604495147e-03 -1.2001433907873603e-04  7.6516267780559063e-05 -5.9142927235822703e-03 -1.2497804368711459e-04  7.6497793394924584e-05 -5.9150788109445327e-03 -1.2894284946287504e-04  7.6491227730380882e-05 -5.9158597972690675e-03 -1.3203907663491434e-04  7.6492710006631381e-05 -5.9166346659623526e-03 -1.3433085844371438e-04  7.6500084237583505e-05 -5.9174049678486548e-03 -1.3601873652265600e-04  7.6514652508686182e-05 -5.9181696836672444e-03 -1.3697017445