<?xml version="1.0"?>
<VTKFile type="UnstructuredGrid"  version="0.1"  >
<UnstructuredGrid>
<Piece  NumberOfPoints="10958" NumberOfCells="41820">
<Points>
<DataArray  type="Float64"  NumberOfComponents="3"  format="ascii">1 0.04955 0  3.483770450905253e-06 0.04864772283650545 0  3.483770450905253e-06 0.04864772283650545 2.95  1 0.04955 2.95  0.9705745651584323 0.0546328692740541 0  0.9410403409854562 0.05904933268918263 0  0.9114506936029688 0.06307764259166145 0  0.8818365365778597 0.06692205633990718 0  0.852195425756178 0.07055529100758898 0  0.8225213484314672 0.07390813590379837 0  0.7928382076274137 0.07717791230068967 0  0.7631311412584285 0.08022519712851128 0  0.7333970986343074 0.08299595685799818 0  0.7036468593402103 0.08558339900696151 0  0.6738808305098906 0.08798485813956464 0  0.6440919092681797 0.09008334865923617 0  0.6142870835549664 0.09194561288677774 0  0.5844675933514397 0.09355367701932085 0  0.5546335832429207 0.09486496269114339 0  0.5247876530181904 0.095868659884793 0  0.4949363523436856 0.09668736484019783 0  0.4650802095563029 0.09731740696399105 0  0.4352195800941197 0.09768943189876603 0  0.405357042743103 0.09780828360274334 0  0.3754942534896675 0.09784351677757946 0  0.3456322298379585 0.09760772238205492 0  0.3157719755355017 0.09723970101506153 0  0.2859142869264596 0.09668561931752166 0  0.2560638915081948 0.09582390318294828 0  0.2262236143831659 0.09466390431188013 0  0.1964020995566796 0.09309886371899376 0  0.1665963941161298 0.09125714074218327 0  0.1368197180220126 0.08899319787719009 0  0.1070946678970156 0.08612945256268216 0  0.07746305623222323 0.08244010579101241 0  0.04805012948181673 0.07731042839253653 0  0.01932358256457366 0.06928107812002522 0  3.483770450905253e-06 0.04864772283650545 0.02979797979797999  3.483770450905253e-06 0.04864772283650545 0.05959595959595966  3.483770450905253e-06 0.04864772283650545 0.08939393939393965  3.483770450905253e-06 0.04864772283650545 0.1191919191919193  3.483770450905253e-06 0.04864772283650545 0.1489898989898993  3.483770450905253e-06 0.04864772283650545 0.178787878787879  3.483770450905253e-06 0.04864772283650545 0.2085858585858589  3.483770450905253e-06 0.04864772283650545 0.2383838383838386  3.483770450905253e-06 0.04864772283650545 0.2681818181818186  3.483770450905253e-06 0.04864772283650545 0.2979797979797986  3.483770450905253e-06 0.04864772283650545 0.3277777777777782  3.483770450905253e-06 0.04864772283650545 0.3575757575757582  3.483770450905253e-06 0.04864772283650545 0.3873737373737379  3.483770450905253e-06 0.04864772283650545 0.4171717171717179  3.483770450905253e-06 0.04864772283650545 0.4469696969696979  3.483770450905253e-06 0.04864772283650545 0.4767676767676775  3.483770450905253e-06 0.04864772283650545 0.5065656565656572  3.483770450905253e-06 0.04864772283650545 0.5363636363636372  3.483770450905253e-06 0.04864772283650545 0.5661616161616169  3.483770450905254e-06 0.04864772283650545 0.5959595959595969  3.483770450905253e-06 0.04864772283650545 0.6257575757575765  3.483770450905254e-06 0.04864772283650545 0.6555555555555564  3.483770450905253e-06 0.04864772283650545 0.6853535353535362  3.483770450905253e-06 0.04864772283650545 0.7151515151515158  3.483770450905253e-06 0.04864772283650545 0.7449494949494958  3.483770450905253e-06 0.04864772283650545 0.7747474747474755  3.483770450905253e-06 0.04864772283650545 0.8045454545454552  3.483770450905253e-06 0.04864772283650545 0.8343434343434351  3.483770450905253e-06 0.04864772283650545 0.8641414141414151  3.483770450905253e-06 0.04864772283650545 0.8939393939393945  3.483770450905254e-06 0.04864772283650545 0.9237373737373745  3.483770450905253e-06 0.04864772283650545 0.9535353535353545  3.483770450905254e-06 0.04864772283650545 0.9833333333333341  3.483770450905253e-06 0.04864772283650545 1.013131313131314  3.483770450905254e-06 0.04864772283650545 1.042929292929294  3.483770450905253e-06 0.04864772283650545 1.072727272727274  3.483770450905254e-06 0.04864772283650545 1.102525252525254  3.483770450905253e-06 0.04864772283650545 1.132323232323234  3.483770450905254e-06 0.04864772283650545 1.162121212121214  3.483770450905253e-06 0.04864772283650545 1.191919191919194  3.483770450905254e-06 0.04864772283650545 1.221717171717174  3.483770450905253e-06 0.04864772283650545 1.251515151515153  3.483770450905254e-06 0.04864772283650545 1.281313131313133  3.483770450905253e-06 0.04864772283650545 1.311111111111113  3.483770450905253e-06 0.04864772283650545 1.340909090909093  3.483770450905253e-06 0.04864772283650545 1.370707070707073  3.483770450905253e-06 0.04864772283650545 1.400505050505053  3.483770450905253e-06 0.04864772283650545 1.430303030303033  3.483770450905253e-06 0.04864772283650545 1.460101010101013  3.483770450905253e-06 0.04864772283650545 1.489898989898993  3.483770450905253e-06 0.04864772283650545 1.519696969696973  3.483770450905253e-06 0.04864772283650545 1.549494949494953  3.483770450905253e-06 0.04864772283650545 1.579292929292933  3.483770450905253e-06 0.04864772283650545 1.609090909090913  3.483770450905253e-06 0.04864772283650545 1.638888888888893  3.483770450905254e-06 0.04864772283650545 1.668686868686872  3.483770450905253e-06 0.04864772283650545 1.698484848484852  3.483770450905254e-06 0.04864772283650545 1.728282828282832  3.483770450905253e-06 0.04864772283650545 1.758080808080812  3.483770450905254e-06 0.04864772283650545 1.787878787878792  3.483770450905253e-06 0.04864772283650545 1.817676767676772  3.483770450905254e-06 0.04864772283650545 1.847474747474752  3.483770450905253e-06 0.04864772283650545 1.877272727272732  3.483770450905254e-06 0.04864772283650545 1.907070707070712  3.483770450905253e-06 0.04864772283650545 1.936868686868691  3.483770450905253e-06 0.04864772283650545 1.966666666666671  3.483770450905253e-06 0.04864772283650545 1.996464646464651  3.483770450905253e-06 0.04864772283650545 2.02626262626263  3.483770450905253e-06 0.04864772283650545 2.056060606060611  3.483770450905253e-06 0.04864772283650545 2.08585858585859  3.483770450905254e-06 0.04864772283650545 2.11565656565657  3.483770450905253e-06 0.04864772283650545 2.14545454545455  3.483770450905253e-06 0.04864772283650545 2.175252525252529  3.483770450905253e-06 0.04864772283650545 2.205050505050508  3.483770450905253e-06 0.04864772283650545 2.234848484848488  3.483770450905253e-06 0.04864772283650545 2.264646464646468  3.483770450905253e-06 0.04864772283650545 2.294444444444448  3.483770450905253e-06 0.04864772283650545 2.324242424242427  3.483770450905253e-06 0.04864772283650545 2.354040404040407  3.483770450905253e-06 0.04864772283650545 2.383838383838387  3.483770450905254e-06 0.04864772283650545 2.413636363636366  3.483770450905253e-06 0.04864772283650545 2.443434343434346  3.483770450905253e-06 0.04864772283650545 2.473232323232326  3.483770450905253e-06 0.04864772283650545 2.503030303030305  3.483770450905253e-06 0.04864772283650545 2.532828282828285  3.483770450905253e-06 0.04864772283650545 2.562626262626264  3.483770450905253e-06 0.04864772283650545 2.592424242424244  3.483770450905254e-06 0.04864772283650545 2.622222222222224  3.483770450905253e-06 0.04864772283650545 2.652020202020203  3.483770450905253e-06 0.04864772283650545 2.681818181818183  3.483770450905253e-06 0.04864772283650545 2.711616161616163  3.483770450905253e-06 0.04864772283650545 2.741414141414142  3.483770450905254e-06 0.04864772283650545 2.771212121212122  3.483770450905253e-06 0.04864772283650545 2.801010101010102  3.483770450905253e-06 0.04864772283650545 2.830808080808081  3.483770450905253e-06 0.04864772283650545 2.860606060606061  3.483770450905253e-06 0.04864772283650545 2.890404040404041  3.483770450905253e-06 0.04864772283650545 2.92020202020202  0.9705745651584323 0.0546328692740541 2.95  0.9410403409854562 0.05904933268918263 2.95  0.9114506936029688 0.06307764259166145 2.95  0.8818365365778597 0.06692205633990718 2.95  0.852195425756178 0.07055529100758898 2.95  0.8225213484314672 0.07390813590379837 2.95  0.7928382076274137 0.07717791230068967 2.95  0.7631311412584285 0.08022519712851128 2.95  0.7333970986343074 0.08299595685799818 2.95  0.7036468593402103 0.08558339900696151 2.95  0.6738808305098906 0.08798485813956464 2.95  0.6440919092681797 0.09008334865923617 2.95  0.6142870835549664 0.09194561288677774 2.95  0.5844675933514397 0.09355367701932085 2.95  0.5546335832429207 0.09486496269114339 2.95  0.5247876530181904 0.095868659884793 2.95  0.4949363523436856 0.09668736484019783 2.95  0.4650802095563029 0.09731740696399105 2.95  0.4352195800941197 0.09768943189876603 2.95  0.405357042743103 0.09780828360274334 2.95  0.3754942534896675 0.09784351677757946 2.95  0.3456322298379585 0.09760772238205492 2.95  0.3157719755355017 0.09723970101506153 2.95  0.2859142869264596 0.09668561931752166 2.95  0.2560638915081948 0.09582390318294828 2.95  0.2262236143831659 0.09466390431188013 2.95  0.1964020995566796 0.09309886371899376 2.95  0.1665963941161298 0.09125714074218327 2.95  0.1368197180220126 0.08899319787719009 2.95  0.1070946678970156 0.08612945256268216 2.95  0.07746305623222323 0.08244010579101241 2.95  0.04805012948181673 0.07731042839253653 2.95  0.01932358256457366 0.06928107812002522 2.95  1 0.04955 0.02979797979797999  1 0.04955 0.05959595959595966  1 0.04955 0.08939393939393965  1 0.04955 0.1191919191919193  1 0.04955 0.1489898989898993  1 0.04955 0.178787878787879  1 0.04955 0.2085858585858589  1 0.04955 0.2383838383838386  1 0.04955 0.2681818181818186  1 0.04955 0.2979797979797986  1 0.04955 0.3277777777777782  1 0.04955 0.3575757575757582  1 0.04955 0.3873737373737379  1 0.04955 0.4171717171717179  1 0.04955 0.4469696969696979  1 0.04955 0.4767676767676775  1 0.04955 0.5065656565656572  1 0.04955 0.5363636363636372  1 0.04955 0.5661616161616169  1 0.04955 0.5959595959595969  1 0.04955 0.6257575757575765  1 0.04955 0.6555555555555564  1 0.04955 0.6853535353535362  1 0.04955 0.7151515151515158  1 0.04955 0.7449494949494958  1 0.04955 0.7747474747474755 
[...]
<PointData  Vectors="Displacement"> 
<DataArray  type="Float64"  Name="Displacement"  NumberOfComponents="3" format="ascii">0.0000000000000000e+00 0.0000000000000000e+00 0.0000000000000000e+00  0.0000000000000000e+00 0.0000000000000000e+00 0.0000000000000000e+00  9.6042196422630805e-05 -7.2817716300284030e-03 1.0498812824737796e-05  9.6170578814617623e-05 -7.3117708763595071e-03 -3.0895577700050735e-05  0.0000000000000000e+00 0.0000000000000000e+00 0.0000000000000000e+00  0.0000000000000000e+00 0.0000000000000000e+00 0.0000000000000000e+00  0.0000000000000000e+00 0.0000000000000000e+00 0.0000000000000000e+00  0.0000000000000000e+00 0.0000000000000000e+00 0.0000000000000000e+00  0.0000000000000000e+00 0.0000000000000000e+00 0.0000000000000000e+00  0.0000000000000000e+00 0.0000000000000000e+00 0.0000000000000000e+00  0.0000000000000000e+00 0.0000000000000000e+00 0.0000000000000000e+00  0.0000000000000000e+00 0.0000000000000000e+00 0.0000000000000000e+00  0.0000000000000000e+00 0.0000000000000000e+00 0.0000000000000000e+00  0.0000000000000000e+00 0.0000000000000000e+00 0.0000000000000000e+00  0.0000000000000000e+00 0.0000000000000000e+00 0.0000000000000000e+00  0.0000000000000000e+00 0.0000000000000000e+00 0.0000000000000000e+00  0.0000000000000000e+00 0.0000000000000000e+00 0.0000000000000000e+00  0.0000000000000000e+00 0.0000000000000000e+00 0.0000000000000000e+00  0.0000000000000000e+00 0.0000000000000000e+00 0.0000000000000000e+00  0.0000000000000000e+00 0.0000000000000000e+00 0.0000000000000000e+00  0.0000000000000000e+00 0.0000000000000000e+00 0.0000000000000000e+00  0.0000000000000000e+00 0.0000000000000000e+00 0.0000000000000000e+00  0.0000000000000000e+00 0.0000000000000000e+00 0.0000000000000000e+00  0.0000000000000000e+00 0.0000000000000000e+00 0.0000000000000000e+00  0.0000000000000000e+00 0.0000000000000000e+00 0.0000000000000000e+00  0.0000000000000000e+00 0.0000000000000000e+00 0.0000000000000000e+00  0.0000000000000000e+00 0.0000000000000000e+00 0.0000000000000000e+00  0.0000000000000000e+00 0.0000000000000000e+00 0.0000000000000000e+00  0.0000000000000000e+00 0.0000000000000000e+00 0.0000000000000000e+00  0.0000000000000000e+00 0.0000000000000000e+00 0.0000000000000000e+00  0.0000000000000000e+00 0.0000000000000000e+00 0.0000000000000000e+00  0.0000000000000000e+00 0.0000000000000000e+00 0.0000000000000000e+00  0.0000000000000000e+00 0.0000000000000000e+00 0.0000000000000000e+00  0.0000000000000000e+00 0.0000000000000000e+00 0.0000000000000000e+00  0.0000000000000000e+00 0.0000000000000000e+00 0.0000000000000000e+00  0.0000000000000000e+00 0.0000000000000000e+00 0.0000000000000000e+00  0.0000000000000000e+00 0.0000000000000000e+00 0.0000000000000000e+00  -6.0798836716597088e-08 1.3864764424187933e-06 1.7498817304124275e-07  1.6000653977060162e-07 7.6954612006890424e-07 7.2843400661886238e-07  4.0764968742324945e-07 -1.9404795417367697e-06 1.3637075811754737e-06  6.7978966766679337e-07 -7.3391952974730952e-06 1.5567224600681063e-06  6.5347372333484350e-07 -1.5383665401042871e-05 1.7994711531921642e-06  1.0005472572535644e-06 -2.6327941976381124e-05 1.9737213726760524e-06  1.1671976519815774e-06 -4.0418296983805303e-05 2.0200028389875956e-06  1.3235840493155288e-06 -5.6816689779157125e-05 2.6020024241987941e-06  1.6836005215886887e-06 -7.5943221630866858e-05 2.8318264102693408e-06  1.8560756157714459e-06 -9.8029705142266280e-05 3.0168322532942534e-06  2.3593776867168651e-06 -1.2249128010488800e-04 3.2993581318381886e-06  2.8924684898485701e-06 -1.4948331113805979e-04 3.3786038510540363e-06  3.0762491255847315e-06 -1.7930972653290448e-04 3.6535636170352604e-06  3.5708670747053796e-06 -2.1123454659502936e-04 3.2746085545806808e-06  3.8152265160498415e-06 -2.4554320364631181e-04 3.8759901410877411e-06  4.4762648042101019e-06 -2.8240853887648499e-04 3.8096073807178240e-06  4.9407703279176169e-06 -3.2085645746833427e-04 4.1033095481292323e-06  5.2805211252890872e-06 -3.6256885241861661e-04 4.3867803362002503e-06  6.0675216323007522e-06 -4.0622023313459019e-04 4.6994698153081556e-06  6.5880314385110889e-06 -4.5181744350861051e-04 4.3644962291892628e-06  7.1748841842107993e-06 -4.9893185219671617e-04 5.0288701117993856e-06  7.7419249597584028e-06 -5.4795713279342465e-04 5.6451091734999727e-06  8.8095960766608408e-06 -5.9904131092479809e-04 5.6893209469368314e-06  9.2299133726984017e-06 -6.5175504729718370e-04 5.8157830631672496e-06  1.0208384474239590e-05 -7.0611906449775160e-04 5.9542364687698998e-06  1.1055512271907734e-05 -7.6219841492891432e-04 5.6405672860947626e-06  1.1514376370877462e-05 -8.2056534819650818e-04 5.5968956778377190e-06  1.2126634460972513e-05 -8.8036495321930938e-04 6.0981202486836478e-06  1.2949412945018875e-05 -9.4222206201968728e-04 6.4231203356891275e-06  1.3894143220526307e-05 -1.0054511742000661e-03 6.6755503965746603e-06  1.4672633324360341e-05 -1.0699769358206977e-03 6.8870796778537689e-06  1.5582043612317307e-05 -1.1359703533616366e-03 7.0779723637769270e-06  1.6554361609736645e-05 -1.2035962876741208e-03 7.1382248358025215e-06  1.7483930555634236e-05 -1.2727547668498298e-03 6.9380459089634563e-06  1.8195960311954253e-05 -1.3428059412734638e-03 7.0615813619975709e-06  1.9027774860786628e-05 -1.4143236250339258e-03 7.5399029145913787e-06  2.0200996545222434e-05 -1.4872401524866914e-03 7.6575361899814950e-06  2.1188865947107180e-05 -1.5614428027090044e-03 7.6696766612126937e-06  2.2167481118366290e-05 -1.6368628608904971e-03 7.5151740175694735e-06  2.2991448099031158e-05 -1.7130402780499167e-03 7.8056613643811586e-06  2.4016916039747107e-05 -1.7904542304872306e-03 8.0298121189433650e-06  2.5142336749604653e-05 -1.8694056381648569e-03 8.2621929768131671e-06  2.6038876427417098e-05 -1.9493942999324414e-03 8.4309601711339607e-06  2.7262603734443421e-05 -2.0303985308052072e-03 8.5167791326596646e-06  2.8361072338970790e-05 -2.1124775494165060e-03 8.5452932787885095e-06  2.9391677379760678e-05 -2.1955244132455458e-03 8.5633733079656445e-06  3.0517292529993091e-05 -2.2793299774100124e-03 8.3962542843865996e-06  3.1570838721590170e-05 -2.3640729995202964e-03 8.5942206763361381e-06  3.2612764255206747e-05 -2.4495513828585382e-03 8.6898891595180536e-06  3.3799102886578488e-05 -2.5359693618108377e-03 8.8367739662795103e-06  3.4900310291090837e-05 -2.6233690483649492e-03 9.1213645675641556e-06  3.6077620334918958e-05 -2.7114239079389282e-03 9.2409183033563822e-06  3.7343373613201850e-05 -2.8003100638025994e-03 9.0772099609134435e-06  3.8375630528326753e-05 -2.8897410213675682e-03 9.1582479011071631e-06  3.9649434304136138e-05 -2.9799411930869963e-03 9.1768634921085366e-06  4.0744964365981427e-05 -3.0708025759318388e-03 9.2607420292834562e-06  4.1925761185571831e-05 -3.1621453394831225e-03 9.3778548419110657e-06  4.3086959739203550e-05 -3.2541349294220420e-03 9.6321159974662391e-06  4.4395078237313964e-05 -3.3466717051308065e-03 9.6989826956785583e-06  4.5648805437195598e-05 -3.4396925349083471e-03 9.5795136174818204e-06  4.6769543858697991e-05 -3.5332523293702040e-03 9.6307122668278775e-06  4.7954462069069932e-05 -3.6274026780146757e-03 9.8791750490913261e-06  4.9320921264779675e-05 -3.7220661217342594e-03 9.8801764243362457e-06  5.0591104673327932e-05 -3.8171977185449289e-03 9.8146134820302378e-06  5.1782324049330812e-05 -3.9127401583325316e-03 9.8311911501411355e-06  5.3019435264724730e-05 -4.0086196154938310e-03 1.0000789930191616e-05  5.4252300696119705e-05 -4.1049002604169370e-03 1.0096399026869892e-05  5.5591217033742192e-05 -4.2014448520783986e-03 1.0112838634819794e-05  5.6813037948415257e-05 -4.2983975208445435e-03 1.0158168497426678e-05  5.8150158649500503e-05 -4.3956512440206895e-03 1.0176836525495906e-05  5.9447226550927109e-05 -4.4932161614346620e-03 1.0111199488948911e-05  6.0685097284312970e-05 -4.5911218491978658e-03 1.0132346177332352e-05  6.1953691274826424e-05 -4.6892251422074004e-03 1.0256159617541633e-05  6.3225614394373368e-05 -4.7875536494434425e-03 1.0290786169316130e-05  6.4549469635164926e-05 -4.8861506417872940e-03 1.0327752478269649e-05  6.5845644164618867e-05 -4.9849090365629437e-03 1.0324376842847920e-05  6.7140761180360683e-05 -5.0838448681813277e-03 1.0342444141739503e-05  6.8463863652976458e-05 -5.1829659309315691e-03 1.0323431089333336e-05  6.9761010846443452e-05 -5.2822397027376174e-03 1.0344585717102504e-05  7.1051077342038936e-05 -5.3816614149241925e-03 1.0382059698182947e-05  7.2343402913685849e-05 -5.4811705398274818e-03 1.0424931028413219e-05  7.3676422338065444e-05 -5.5808166774182306e-03 1.0441933026206873e-05  7.4973832795575666e-05 -5.6805391501583910e-03 1.0445594340718977e-05  7.6295787526530967e-05 -5.7803502018632710e-03 1.0453112468623773e-05  7.7612510286225996e-05 -5.8802300099113870e-03 1.0451515379761377e-05  7.8933287338808032e-05 -5.9801810298567744e-03 1.0448288919417955e-05  8.0240872284969954e-05 -6.0801816529433839e-03 1.0467207419450749e-05  8.1547630291215755e-05 -6.1802302214706241e-03 1.0481566658527254e-05  8.2871606191230608e-05 -6.2803167442321943e-03 1.0484457412171906e-05  8.4193512883715097e-05 -6.3804236495838672e-03 1.0482413744643112e-05  8.5511068936981329e-05 -6.4805541644489878e-03 1.0488253143898459e-05  8.6821984452448557e-05 -6.5806967106865353e-03 1.0496398796170511e-05  8.8138829228692970e-05 -6.6808512475522242e-03 1.0498584518756563e-05  8.9458539539693708e-05 -6.7810118778206408e-03 1.0499184433221249e-05  9.0777023791597275e-05 -6.8811697057846316e-03 1.0499450638637172e-05  9.2092508653668568e-05 -6.9813261066888491e-03 1.0498331830045221e-05  9.3411040556505803e-05 -7.0814795619561482e-03 1.0498624066677001e-05  9.4726834599397744e-05 -7.1816282630624484e-03 1.0498688587051934e-05  9.6302273412842443e-05 -7.3110024397490822e-03 -1.2477052296234054e-05  9.6420796077554546e-05 -7.3102122977303854e-03 3.7002310055610796e-06  9.6533881041709700e-05 -7.3093962172292104e-03 1.8572394220935506e-05  9.6642214950021528e-05 -7.3085622339129942e-03 3.2826271769114849e-05  9.6743376884356899e-05 -7.3077235849862161e-03 4.6368277264984017e-05  9.6835740994108592e-05 -7.3068881961135066e-03 5.8969674577928135e-05  9.6925893062062532e-05 -7.3060508703302694e-03 7.1288798469100828e-05  9.7011603847560750e-05 -7.3052129589588205e-03 8.2858579082150638e-05  9.7088161755917976e-05 -7.3043732483290685e-03 9.3499435521183957e-05  9.7163196977046183e-05 -7.3035321019711526e-03 1.0351705974050342e-04  9.7230813379256786e-05 -7.3026802674286779e-03 1.1291135731516059e-04  9.7293143308338468e-05 -7.3018227476962794e-03 1.2128185193813850e-04  9.7347717606078768e-05 -7.3009570252356099e-03 1.2886204588756899e-04  9.7397823942176818e-05 -7.3000933803576366e-03 1.3558432094263676e-04  9.7438465584452784e-05 -7.2992189819440232e-03 1.4131219833657928e-04  9.7475099311290729e-05 -7.2983410126230847e-03 1.4600172492586159e-04  9.7504571955664342e-05 -7.2974543266668048e-03 1.5006974881877580e-04  9.7530098848841435e-05 -7.2965601706661953e-03 1.5350422457667480e-04  9.7550078320024537e-05 -7.2956572774073225e-03 1.5606953335638954e-04  9.7562237541948146e-05 -7.2947485126061444e-03 1.5778515024058104e-04  9.7571146088236443e-05 -7.2938350450833531e-03 1.5922200737766661e-04  9.7572589731359104e-05 -7.2929134372061947e-03 1.5974842238932363e-04  9.7570982310643108e-05 -7.2919833655809008e-03 1.5982938188084778e-04  9.7565107462403551e-05 -7.2910457508987498e-03 1.5928620086624041e-04  9.7547602038145471e-05 -7.2901029069217414e-03 1.5771074584966559e-04  9.7519634969035196e-05 -7.2891528898754035e-03 1.5513247607909224e-04  9.7478468488024258e-05 -7.2881965628457035e-03 1.5119358479754414e-04  9.7427862199502590e-05 -7.2872342314833308e-03 1.4632310686287737e-04  9.7360646858297303e-05 -7.2862663989999949e-03 1.4003400903356473e-04  9.7271624207452936e-05 -7.2852947143118218e-03 1.3172586248771061e-04  9.7153374654785233e-05 -7.2843246769780552e-03 1.2063861602938967e-04  9.6987536709302501e-05 -7.2833563918993250e-03 1.0470235077818422e-04  9.6723496405382432e-05 -7.2824093935483104e-03 7.8987838692622358e-05  -3.3055796239898167e-07 8.1194596453208152e-07 -3.5026218082415454e-08  -6.0371644353537964e-07 3.7147641867981405e-07 -2.7374174240124939e-07  -7.0186272687867588e-07 -7.8329290244196396e-07 -9.0586575593429476e-07  -5.1988721206652489e-07 -5.8078024978230405e-06 -1.9968493307534850e-06  2.1512622989927194e-08 -1.1521326545493843e-05 -2.9988434261476219e-06  2.3939622284840042e-07 -1.8052350316233022e-05 -3.3152721379475570e-06  4.4849490099320871e-07 -3.1082057367306209e-05 -3.7801049351851769e-06  7.4811259670906794e-07 -4.4870691519687116e-05 -4.3074522020953063e-06  5.7013071593984297e-07 -6.0951362904685943e-05 -4.7563028214293149e-06  9.3882608786546850e-07 -7.9563409622019867e-05 -5.7071543540510274e-06  1.8237153757519929e-06 -1.0147823741377123e-04 -6.9701753048479308e-06  2.6878495109493983e-06 -1.2442224325978597e-04 -8.2608487540942953e-06  3.6849222490330468e-06 -1.4854739013022531e-04 -9.4902760977041177e-06  3.5910183165490361e-06 -1.7997842954604879e-04 -9.6500836382649090e-06  4.2480410323619164e-06 -2.1349912721667277e-04 -1.0216731057632011e-05  4.6068523937142651e-06 -2.4731601064192395e-04 -1.1096631364978265e-05  5.1507301668054945e-06 -2.8496057022109371e-04 -1.1889111275823451e-05  5.6231571637018688e-06 -3.2602613480094757e-04 -1.3172700546723748e-05  6.1006005733289850e-06 -3.7010694964903073e-04 -1.4572100000837789e-05  6.8794699454313063e-06 -4.1709926031078295e-04 -1.4911037852512271e-05  7.1808236432403594e-06 -4.6599858341020368e-04 -1.5211797862058496e-05  7.7875514261688039e-06 -5.1565194701316255e-04 -1.5768452669877736e-05  8.5224566052212935e-06 -5.6671265409310295e-04 -1.6165171932271221e-05  9.1314128342099338e-06 -6.1996708103325207e-04 -1.6814099524977119e-05  9.9767990232453298e-06 -6.7498316457434242e-04 -1.7568629802549669e-05  1.0578435394231061e-05 -7.3187033087441871e-04 -1.7630943324943690e-05  1.1353221227672421e-05 -7.9113273469584534e-04 -1.8824921315611717e-05  1.2002106661064564e-05 -8.5318985906268239e-04 -1.9356305192939933e-05  1.2807066563848815e-05 -9.1609636475093077e-04 -1.9940301031121348e-05  1.3932540252408471e-05 -9.8074583368057693e-04 -2.0640879184189784e-05  1.4862225508998591e-05 -1.0457912477607426e-03 -2.0983996240185811e-05  1.5677744538267840e-05 -1.1121917146556758e-03 -2.1059671017309598e-05  1.6635665762777460e-05 -1.1802821146663187e-03 -2.1662264313191912e-05  1.7456395565904603e-05 -1.2501366395616951e-03 -2.2195384551406259e-05  1.8262130983908414e-05 -1.3218730628793472e-03 -2.2206747378683274e-05  1.9285294076148980e-05 -1.3941599503437441e-03 -2.2908405840685211e-05  2.0380932422331072e-05 -1.4668211775717235e-03 -2.2984576015245920e-05  2.1457782575378853e-05 -1.5421020893824598e-03 -2.3397669892292279e-05  2.2354123497916947e-05 -1.6185896969208786e-03 -2.3962306397924754e-05  2.3430931722938769e-05 -1.6960186210491909e-03 -2.4398457677868771e-05  2.4378613252342339e-05 -1.7759828178282176e-03 -2.4900653547299868e-05  2.5385504546855039e-05 -1.8566498477684977e-03 -2.5165865624458486e-05  2.6441124670015918e-05 -1.9381752816305952e-03 -2.5558279424796193e-05  2.7506805274724233e-05 -2.0200905075698724e-03 -2.5662903905973833e-05  2.8592278982129394e-05 -2.1035542730088704e-03 -2.5783146202648865e-05  2.9686513061293984e-05 -2.1875118748141400e-03 -2.6099312088068969e-05  3.0660458149732048e-05 -2.2727370280608886e-03 -2.6315737894047125e-05  3.1775593538448648e-05 -2.3582959245820280e-03 -2.6497097923745370e-05  3.2803815527688685e-05 -2.4446554395705826e-03 -2.6886599033587253e-05  3.4087242211010492e-05 -2.5323206270159806e-03 -2.7160674107676961e-05  3.5214898450253565e-05 -2.6206963859736220e-03 -2.7371059475844737e-05  3.6294631533285040e-05 -2.7098050756412294e-03 -2.7751454902224839e-05  3.7446487160090304e-05 -2.7997547721366469e-03 -2.8019319590196867e-05  3.8627357835684811e-05 -2.8904481333846040e-03 -2.8049408756633212e-05  3.9755253059216419e-05 -2.9817252403705505e-03 -2.8321781197038263e-05  4.0951610947621589e-05 -3.0737636483570557e-03 -2.8534915287160301e-05  4.2227482712245915e-05 -3.1659746971133811e-03 -2.8692750312858288e-05  4.3374890753990257e-05 -3.2594562888474577e-03 -2.8866567743750621e-05  4.4506131222008727e-05 -3.3537607155507861e-03 -2.9015938144079107e-05  4.5663498354260995e-05 -3.4484147815835183e-03 -2.9249175230871325e-05  4.6869061022090655e-05 -3.5433232826874200e-03 -2.9389290267828033e-05  4.8127365760835615e-05 -3.6386505871282161e-03 -2.9513752661950248e-05  4.9423560261961035e-05 -3.7340027128820691e-03 -2.9640490308431975e-05  5.0682662291679019e-05 -3.8297345718068285e-03 -2.9688707442636635e-05  5.1958711777168888e-05 -3.9256935027993066e-03 -2.9833553357578733e-05  5.3189592432892560e-05 -4.0225087061351748e-03 -2.9907234040442385e-05  5.4473812075022487e-05 -4.1194043894897531e-03 -2.9987811303853444e-05  5.5743401183608135e-05 -4.2167318807278314e-03 -3.0094144546712954e-05  5.6985788251836678e-05 -4.3145915141421694e-03 -3.0212002618792161e-05  5.8280447743068896e-05 -4.4127312544254777e-03 -3.0286992825413242e-05  5.9479195206259974e-05 -4.5112955237823242e-03 -3.0421958214369900e-05  6.0802680966988999e-05 -4.6098303235603951e-03 -3.0480391238970331e-05  6.2085941238902180e-05 -4.7087252216874561e-03 -3.0521759058791714e-05  6.3373259522841508e-05 -4.8076729749525933e-03 -3.0591424963701421e-05  6.4639955795920561e-05 -4.9070361981498308e-03 -3.0675711502752847e-05  6.5922369624522365e-05 -5.0064597728712735e-03 -3.0737119516789857e-05  6.7229946214705604e-05 -5.1060929640541330e-03 -3.0752920629638638e-05  6.8518106569274574e-05 -5.2057940256661599e-03 -3.0770269262773501e-05  6.9813033280790928e-05 -5.3057205675408779e-03 -3.0808067773594124e-05  7.1109840826155907e-05 -5.4057559672495738e-03 -3.0834907186722272e-05  7.2418068950569358e-05 -5.5058027857855319e-03 -3.0856340840575975e-05  7.3720656452680672e-05 -5.6059451738579378e-03 -3.0886621738933682e-05  7.5029201876797020e-05 -5.7061132787165876e-03 -3.0913212238353696e-05  7.6358352302857395e-05 -5.8063694753601493e-03 -3.0908173789812466e-05  7.7683018432307094e-05 -5.9066604651932340e-03 -3.0915045347943863e-05  7.8986163510296413e-05 -6.0070417207521657e-03 -3.0919240712721077e-05  8.0293585794341798e-05 -6.1074577056787101e-03 -3.0930805195312834e-05  8.1611648150423186e-05 -6.2078594251309309e-03 -3.0931101218598166e-05  8.2937666603624007e-05 -6.3082648664006631e-03 -3.0927758778634458e-05  8.4248572319960924e-05 -6.4087166927596978e-03 -3.0932820620698965e-05  8.5567597351229586e-05 -6.5091275156836832e-03 -3.0921636592400712e-05  8.6895471918295499e-05 -6.6094974587323878e-03 -3.0921756900571669e-05  8.8220339562272200e-05 -6.7098592235207127e-03 -3.0917990939585470e-05  8.9543656932660186e-05 -6.8102214604498900e-03 -3.0910058759687343e-05  9.0869801716142001e-05 -6.9105541062317710e-03 -3.0905391630686942e-05  9.2189820981018310e-05 -7.0108777803681976e-03 -3.0895653052551274e-05  9.3512434101056908e-05 -7.1112027994530659e-03 -3.0892470638822580e-05  9.4839301150262745e-05 -7.2114898119809041e-03 -3.0894622542310948e-05  9.5393466811995485e-05 -7.2824607784890633e-03 -5.6447690492762939e-05  9.5100676067658935e-05 -7.2833997182294684e-03 -8.7621860770526166e-05  9.4935093338341693e-05 -7.2843669357309480e-03 -1.0614413417997156e-04  9.4813377938663602e-05 -7.2853374462052336e-03 -1.2028196837949993e-04  9.4723044163614911e-05 -7.2863071571416518e-03 -1.3148546138784799e-04  9.4656204396104178e-05 -7.2872739485077302e-03 -1.4069200330718595e-04  9.4603627433687649e-05 -7.2882354392777796e-03 -1.4853820509904518e-04  9.4570823207359563e-05 -7.2891903882697836e-03 -1.5468537115220055e-04  9.4549308614393486e-05 -7.2901401671623530e-03 -1.5959608667213390e-04  9.4542474490875509e-05 -7.2910833402529867e-03 -1.6343163286344192e-04  9.4545381886558018e-05 -7.2920186021826761e-03 -1.6627141930759104e-04  9.4555408139521276e-05 -7.2929479657786629e-03 -1.6836388218694444e-04  9.4574130044812503e-05 -7.2938701204418935e-03 -1.6954472408