<?xml version="1.0"?>
<VTKFile type="UnstructuredGrid"  version="0.1"  >
<UnstructuredGrid>
<Piece  NumberOfPoints="10958" NumberOfCells="41820">
<Points>
<DataArray  type="Float64"  NumberOfComponents="3"  format="ascii">1 0.04955 0  3.483770450905253e-06 0.04864772283650545 0  3.483770450905253e-06 0.04864772283650545 2.95  1 0.04955 2.95  0.9705745651584323 0.0546328692740541 0  0.9410403409854562 0.05904933268918263 0  0.9114506936029688 0.06307764259166145 0  0.8818365365778597 0.06692205633990718 0  0.852195425756178 0.07055529100758898 0  0.8225213484314672 0.07390813590379837 0  0.7928382076274137 0.07717791230068967 0  0.7631311412584285 0.08022519712851128 0  0.7333970986343074 0.08299595685799818 0  0.7036468593402103 0.08558339900696151 0  0.6738808305098906 0.08798485813956464 0  0.6440919092681797 0.09008334865923617 0  0.6142870835549664 0.09194561288677774 0  0.5844675933514397 0.09355367701932085 0  0.5546335832429207 0.09486496269114339 0  0.5247876530181904 0.095868659884793 0  0.4949363523436856 0.09668736484019783 0  0.4650802095563029 0.09731740696399105 0  0.4352195800941197 0.09768943189876603 0  0.405357042743103 0.09780828360274334 0  0.3754942534896675 0.09784351677757946 0  0.3456322298379585 0.09760772238205492 0  0.3157719755355017 0.09723970101506153 0  0.2859142869264596 0.09668561931752166 0  0.2560638915081948 0.09582390318294828 0  0.2262236143831659 0.09466390431188013 0  0.1964020995566796 0.09309886371899376 0  0.1665963941161298 0.09125714074218327 0  0.1368197180220126 0.08899319787719009 0  0.1070946678970156 0.08612945256268216 0  0.07746305623222323 0.08244010579101241 0  0.04805012948181673 0.07731042839253653 0  0.01932358256457366 0.06928107812002522 0  3.483770450905253e-06 0.04864772283650545 0.02979797979797999  3.483770450905253e-06 0.04864772283650545 0.05959595959595966  3.483770450905253e-06 0.04864772283650545 0.08939393939393965  3.483770450905253e-06 0.04864772283650545 0.1191919191919193  3.483770450905253e-06 0.04864772283650545 0.1489898989898993  3.483770450905253e-06 0.04864772283650545 0.178787878787879  3.483770450905253e-06 0.04864772283650545 0.2085858585858589  3.483770450905253e-06 0.04864772283650545 0.2383838383838386  3.483770450905253e-06 0.04864772283650545 0.2681818181818186  3.483770450905253e-06 0.04864772283650545 0.2979797979797986  3.483770450905253e-06 0.04864772283650545 0.3277777777777782  3.483770450905253e-06 0.04864772283650545 0.3575757575757582  3.483770450905253e-06 0.04864772283650545 0.3873737373737379  3.483770450905253e-06 0.04864772283650545 0.4171717171717179  3.483770450905253e-06 0.04864772283650545 0.4469696969696979  3.483770450905253e-06 0.04864772283650545 0.4767676767676775  3.483770450905253e-06 0.04864772283650545 0.5065656565656572  3.483770450905253e-06 0.04864772283650545 0.5363636363636372  3.483770450905253e-06 0.04864772283650545 0.5661616161616169  3.483770450905254e-06 0.04864772283650545 0.5959595959595969  3.483770450905253e-06 0.04864772283650545 0.6257575757575765  3.483770450905254e-06 0.04864772283650545 0.6555555555555564  3.483770450905253e-06 0.04864772283650545 0.6853535353535362  3.483770450905253e-06 0.04864772283650545 0.7151515151515158  3.483770450905253e-06 0.04864772283650545 0.7449494949494958  3.483770450905253e-06 0.04864772283650545 0.7747474747474755  3.483770450905253e-06 0.04864772283650545 0.8045454545454552  3.483770450905253e-06 0.04864772283650545 0.8343434343434351  3.483770450905253e-06 0.04864772283650545 0.8641414141414151  3.483770450905253e-06 0.04864772283650545 0.8939393939393945  3.483770450905254e-06 0.04864772283650545 0.9237373737373745  3.483770450905253e-06 0.04864772283650545 0.9535353535353545  3.483770450905254e-06 0.04864772283650545 0.9833333333333341  3.483770450905253e-06 0.04864772283650545 1.013131313131314  3.483770450905254e-06 0.04864772283650545 1.042929292929294  3.483770450905253e-06 0.04864772283650545 1.072727272727274  3.483770450905254e-06 0.04864772283650545 1.102525252525254  3.483770450905253e-06 0.04864772283650545 1.132323232323234  3.483770450905254e-06 0.04864772283650545 1.162121212121214  3.483770450905253e-06 0.04864772283650545 1.191919191919194  3.483770450905254e-06 0.04864772283650545 1.221717171717174  3.483770450905253e-06 0.04864772283650545 1.251515151515153  3.483770450905254e-06 0.04864772283650545 1.281313131313133  3.483770450905253e-06 0.04864772283650545 1.311111111111113  3.483770450905253e-06 0.04864772283650545 1.340909090909093  3.483770450905253e-06 0.04864772283650545 1.370707070707073  3.483770450905253e-06 0.04864772283650545 1.400505050505053  3.483770450905253e-06 0.04864772283650545 1.430303030303033  3.483770450905253e-06 0.04864772283650545 1.460101010101013  3.483770450905253e-06 0.04864772283650545 1.489898989898993  3.483770450905253e-06 0.04864772283650545 1.519696969696973  3.483770450905253e-06 0.04864772283650545 1.549494949494953  3.483770450905253e-06 0.04864772283650545 1.579292929292933  3.483770450905253e-06 0.04864772283650545 1.609090909090913  3.483770450905253e-06 0.04864772283650545 1.638888888888893  3.483770450905254e-06 0.04864772283650545 1.668686868686872  3.483770450905253e-06 0.04864772283650545 1.698484848484852  3.483770450905254e-06 0.04864772283650545 1.728282828282832  3.483770450905253e-06 0.04864772283650545 1.758080808080812  3.483770450905254e-06 0.04864772283650545 1.787878787878792  3.483770450905253e-06 0.04864772283650545 1.817676767676772  3.483770450905254e-06 0.04864772283650545 1.847474747474752  3.483770450905253e-06 0.04864772283650545 1.877272727272732  3.483770450905254e-06 0.04864772283650545 1.907070707070712  3.483770450905253e-06 0.04864772283650545 1.936868686868691  3.483770450905253e-06 0.04864772283650545 1.966666666666671  3.483770450905253e-06 0.04864772283650545 1.996464646464651  3.483770450905253e-06 0.04864772283650545 2.02626262626263  3.483770450905253e-06 0.04864772283650545 2.056060606060611  3.483770450905253e-06 0.04864772283650545 2.08585858585859  3.483770450905254e-06 0.04864772283650545 2.11565656565657  3.483770450905253e-06 0.04864772283650545 2.14545454545455  3.483770450905253e-06 0.04864772283650545 2.175252525252529  3.483770450905253e-06 0.04864772283650545 2.205050505050508  3.483770450905253e-06 0.04864772283650545 2.234848484848488  3.483770450905253e-06 0.04864772283650545 2.264646464646468  3.483770450905253e-06 0.04864772283650545 2.294444444444448  3.483770450905253e-06 0.04864772283650545 2.324242424242427  3.483770450905253e-06 0.04864772283650545 2.354040404040407  3.483770450905253e-06 0.04864772283650545 2.383838383838387  3.483770450905254e-06 0.04864772283650545 2.413636363636366  3.483770450905253e-06 0.04864772283650545 2.443434343434346  3.483770450905253e-06 0.04864772283650545 2.473232323232326  3.483770450905253e-06 0.04864772283650545 2.503030303030305  3.483770450905253e-06 0.04864772283650545 2.532828282828285  3.483770450905253e-06 0.04864772283650545 2.562626262626264  3.483770450905253e-06 0.04864772283650545 2.592424242424244  3.483770450905254e-06 0.04864772283650545 2.622222222222224  3.483770450905253e-06 0.04864772283650545 2.652020202020203  3.483770450905253e-06 0.04864772283650545 2.681818181818183  3.483770450905253e-06 0.04864772283650545 2.711616161616163  3.483770450905253e-06 0.04864772283650545 2.741414141414142  3.483770450905254e-06 0.04864772283650545 2.771212121212122  3.483770450905253e-06 0.04864772283650545 2.801010101010102  3.483770450905253e-06 0.04864772283650545 2.830808080808081  3.483770450905253e-06 0.04864772283650545 2.860606060606061  3.483770450905253e-06 0.04864772283650545 2.890404040404041  3.483770450905253e-06 0.04864772283650545 2.92020202020202  0.9705745651584323 0.0546328692740541 2.95  0.9410403409854562 0.05904933268918263 2.95  0.9114506936029688 0.06307764259166145 2.95  0.8818365365778597 0.06692205633990718 2.95  0.852195425756178 0.07055529100758898 2.95  0.8225213484314672 0.07390813590379837 2.95  0.7928382076274137 0.07717791230068967 2.95  0.7631311412584285 0.08022519712851128 2.95  0.7333970986343074 0.08299595685799818 2.95  0.7036468593402103 0.08558339900696151 2.95  0.6738808305098906 0.08798485813956464 2.95  0.6440919092681797 0.09008334865923617 2.95  0.6142870835549664 0.09194561288677774 2.95  0.5844675933514397 0.09355367701932085 2.95  0.5546335832429207 0.09486496269114339 2.95  0.5247876530181904 0.095868659884793 2.95  0.4949363523436856 0.09668736484019783 2.95  0.4650802095563029 0.09731740696399105 2.95  0.4352195800941197 0.09768943189876603 2.95  0.405357042743103 0.09780828360274334 2.95  0.3754942534896675 0.09784351677757946 2.95  0.3456322298379585 0.09760772238205492 2.95  0.3157719755355017 0.09723970101506153 2.95  0.2859142869264596 0.09668561931752166 2.95  0.2560638915081948 0.09582390318294828 2.95  0.2262236143831659 0.09466390431188013 2.95  0.1964020995566796 0.09309886371899376 2.95  0.1665963941161298 0.09125714074218327 2.95  0.1368197180220126 0.08899319787719009 2.95  0.1070946678970156 0.08612945256268216 2.95  0.07746305623222323 0.08244010579101241 2.95  0.04805012948181673 0.07731042839253653 2.95  0.01932358256457366 0.06928107812002522 2.95  1 0.04955 0.02979797979797999  1 0.04955 0.05959595959595966  1 0.04955 0.08939393939393965  1 0.04955 0.1191919191919193  1 0.04955 0.1489898989898993  1 0.04955 0.178787878787879  1 0.04955 0.2085858585858589  1 0.04955 0.2383838383838386  1 0.04955 0.2681818181818186  1 0.04955 0.2979797979797986  1 0.04955 0.3277777777777782  1 0.04955 0.3575757575757582  1 0.04955 0.3873737373737379  1 0.04955 0.4171717171717179  1 0.04955 0.4469696969696979  1 0.04955 0.4767676767676775  1 0.04955 0.5065656565656572  1 0.04955 0.5363636363636372  1 0.04955 0.5661616161616169  1 0.04955 0.5959595959595969  1 0.04955 0.6257575757575765  1 0.04955 0.6555555555555564  1 0.04955 0.6853535353535362  1 0.04955 0.7151515151515158  1 0.04955 0.7449494949494958  1 0.04955 0.7747474747474755 
[...]
<PointData  Vectors="Displacement"> 
<DataArray  type="Float64"  Name="Displacement"  NumberOfComponents="3" format="ascii">0.0000000000000000e+00 0.0000000000000000e+00 0.0000000000000000e+00  0.0000000000000000e+00 0.0000000000000000e+00 0.0000000000000000e+00  6.3405268288811299e-05 -4.8331293907606272e-03 6.8426444709949945e-06  6.3484801195407670e-05 -4.8540838581062505e-03 -2.0212677938665819e-05  0.0000000000000000e+00 0.0000000000000000e+00 0.0000000000000000e+00  0.0000000000000000e+00 0.0000000000000000e+00 0.0000000000000000e+00  0.0000000000000000e+00 0.0000000000000000e+00 0.0000000000000000e+00  0.0000000000000000e+00 0.0000000000000000e+00 0.0000000000000000e+00  0.0000000000000000e+00 0.0000000000000000e+00 0.0000000000000000e+00  0.0000000000000000e+00 0.0000000000000000e+00 0.0000000000000000e+00  0.0000000000000000e+00 0.0000000000000000e+00 0.0000000000000000e+00  0.0000000000000000e+00 0.0000000000000000e+00 0.0000000000000000e+00  0.0000000000000000e+00 0.0000000000000000e+00 0.0000000000000000e+00  0.0000000000000000e+00 0.0000000000000000e+00 0.0000000000000000e+00  0.0000000000000000e+00 0.0000000000000000e+00 0.0000000000000000e+00  0.0000000000000000e+00 0.0000000000000000e+00 0.0000000000000000e+00  0.0000000000000000e+00 0.0000000000000000e+00 0.0000000000000000e+00  0.0000000000000000e+00 0.0000000000000000e+00 0.0000000000000000e+00  0.0000000000000000e+00 0.0000000000000000e+00 0.0000000000000000e+00  0.0000000000000000e+00 0.0000000000000000e+00 0.0000000000000000e+00  0.0000000000000000e+00 0.0000000000000000e+00 0.0000000000000000e+00  0.0000000000000000e+00 0.0000000000000000e+00 0.0000000000000000e+00  0.0000000000000000e+00 0.0000000000000000e+00 0.0000000000000000e+00  0.0000000000000000e+00 0.0000000000000000e+00 0.0000000000000000e+00  0.0000000000000000e+00 0.0000000000000000e+00 0.0000000000000000e+00  0.0000000000000000e+00 0.0000000000000000e+00 0.0000000000000000e+00  0.0000000000000000e+00 0.0000000000000000e+00 0.0000000000000000e+00  0.0000000000000000e+00 0.0000000000000000e+00 0.0000000000000000e+00  0.0000000000000000e+00 0.0000000000000000e+00 0.0000000000000000e+00  0.0000000000000000e+00 0.0000000000000000e+00 0.0000000000000000e+00  0.0000000000000000e+00 0.0000000000000000e+00 0.0000000000000000e+00  0.0000000000000000e+00 0.0000000000000000e+00 0.0000000000000000e+00  0.0000000000000000e+00 0.0000000000000000e+00 0.0000000000000000e+00  0.0000000000000000e+00 0.0000000000000000e+00 0.0000000000000000e+00  0.0000000000000000e+00 0.0000000000000000e+00 0.0000000000000000e+00  0.0000000000000000e+00 0.0000000000000000e+00 0.0000000000000000e+00  0.0000000000000000e+00 0.0000000000000000e+00 0.0000000000000000e+00  -4.3817276424431583e-08 9.2876343158744733e-07 1.1549161319312224e-07  1.0713752668808312e-07 4.6906019303398874e-07 4.9426918090572088e-07  2.7506740528264737e-07 -1.4318984991320471e-06 9.2818879349763669e-07  4.6230857006216191e-07 -5.1801117602463105e-06 1.0560510532229555e-06  4.4314558873096358e-07 -1.0741309038416827e-05 1.2193792884310148e-06  6.7921035838839339e-07 -1.8285866077439981e-05 1.3348842411369833e-06  7.9278072512720033e-07 -2.7976279582630767e-05 1.3630788125318597e-06  8.9764071882809064e-07 -3.9238171739601618e-05 1.7572856366696101e-06  1.1422422618465545e-06 -5.2357065671872902e-05 1.9105732423822843e-06  1.2595597378409613e-06 -6.7484336222169416e-05 2.0333728649968923e-06  1.5999309742442392e-06 -8.4220640633888728e-05 2.2219106987840267e-06  1.9603870914571113e-06 -1.0266761798357513e-04 2.2728815465321536e-06  2.0849898850812508e-06 -1.2302720226794951e-04 2.4569041157734782e-06  2.4203014394881859e-06 -1.4480015922758451e-04 2.2008287999066070e-06  2.5847329136263032e-06 -1.6817635320762046e-04 2.6032908424548696e-06  3.0319212984540665e-06 -1.9326808455849486e-04 2.5570624187278405e-06  3.3451438034827200e-06 -2.1942116771706240e-04 2.7534359090157916e-06  3.5758090504437056e-06 -2.4775618481541418e-04 2.9409883214381695e-06  4.1035506514313454e-06 -2.7738416701914313e-04 3.1483306753853530e-06  4.4572380557595344e-06 -3.0830722523652893e-04 2.9247040236578532e-06  4.8515849081984346e-06 -3.4023844136884401e-04 3.3654165203382158e-06  5.2317828415035487e-06 -3.7343818355497479e-04 3.7732348822560083e-06  5.9467587600480597e-06 -4.0800223841238936e-04 3.8004288450238338e-06  6.2317710475659670e-06 -4.4364347801851141e-04 3.8828429450809998e-06  6.8844677842056655e-06 -4.8037379417395628e-04 3.9728510658093226e-06  7.4529251039309938e-06 -5.1823448946960082e-04 3.7654131704335798e-06  7.7640994602146382e-06 -5.5759889481952194e-04 3.7366542148973025e-06  8.1763440533627253e-06 -5.9790309150008431e-04 4.0657912600692748e-06  8.7255180063164439e-06 -6.3955400121478410e-04 4.2774619846621785e-06  9.3558478577639955e-06 -6.8210028102103385e-04 4.4415157124049165e-06  9.8777563491755718e-06 -7.2549078244036767e-04 4.5792405203058328e-06  1.0483851128665444e-05 -7.6983661390692983e-04 4.7018408667561813e-06  1.1130757111031756e-05 -8.1524300115383712e-04 4.7396684895593925e-06  1.1752045496159024e-05 -8.6164220268112170e-04 4.6100923472090211e-06  1.2230654349585378e-05 -9.0861738230672243e-04 4.6892918514210706e-06  1.2784994236098541e-05 -9.5654089101641210e-04 4.9978143614796508e-06  1.3561564656347237e-05 -1.0053667996027312e-03 5.0729154504927336e-06  1.4219202070695618e-05 -1.0550202920690530e-03 5.0808189953042560e-06  1.4870555512899325e-05 -1.1054558759552560e-03 4.9811425501251271e-06  1.5421587350903950e-05 -1.1563747302995367e-03 5.1670076510989942e-06  1.6102388246150103e-05 -1.2080855425468668e-03 5.3107411297572206e-06  1.6846634645592797e-05 -1.2607789814320439e-03 5.4583057454954040e-06  1.7445180213975714e-05 -1.3141322358746787e-03 5.5656622493669106e-06  1.8251737849914992e-05 -1.3681314036285033e-03 5.6193979900914097e-06  1.8978999979615121e-05 -1.4228123973477919e-03 5.6371225023169922e-06  1.9662984986340950e-05 -1.4781056700579641e-03 5.6481827607818780e-06  2.0408313511507084e-05 -1.5338779509174547e-03 5.5426740934745920e-06  2.1106213760517416e-05 -1.5902419948712792e-03 5.6679318390698484e-06  2.1797305261021106e-05 -1.6470688633261983e-03 5.7281493482067016e-06  2.2579868835405122e-05 -1.7044869580258345e-03 5.8210762775401176e-06  2.3307627489303311e-05 -1.7625212154848435e-03 5.9993215676591198e-06  2.4083932870633310e-05 -1.8209657767753417e-03 6.0736803232070172e-06  2.4916782295129199e-05 -1.8799297277257423e-03 5.9712216864644762e-06  2.5601850942343913e-05 -1.9392332906760705e-03 6.0218358359037776e-06  2.6438708354864453e-05 -1.9990158551573931e-03 6.0339395429461396e-06  2.7164196550742580e-05 -2.0592088070131771e-03 6.0858963569506111e-06  2.7942650370865610e-05 -2.1197002616159238e-03 6.1589634058026873e-06  2.8708277855824707e-05 -2.1805918987472697e-03 6.3162084463015718e-06  2.9565279717188630e-05 -2.2418223264831687e-03 6.3572901126235033e-06  3.0389969112902232e-05 -2.3033513099433569e-03 6.2837008125921434e-06  3.1131330280244239e-05 -2.3652120652340658e-03 6.3152712025786800e-06  3.1911716002207319e-05 -2.4274358573422978e-03 6.4680540743604981e-06  3.2804500971687582e-05 -2.4899746765100444e-03 6.4685133633967548e-06  3.3638542877487530e-05 -2.5528002340973917e-03 6.4282551095341759e-06  3.4423782833717276e-05 -2.6158768509006391e-03 6.4387122626560479e-06  3.5236505845841302e-05 -2.6791586671654709e-03 6.5421730558469101e-06  3.6047124141251677e-05 -2.7426848508960446e-03 6.6004359084406619e-06  3.6922461674055264e-05 -2.8063712414707217e-03 6.6104991256943440e-06  3.7726565883308939e-05 -2.8703055305966518e-03 6.6379651288757384e-06  3.8600435705756525e-05 -2.9344221526175994e-03 6.6491476932789098e-06  3.9450517169632501e-05 -2.9987266378065252e-03 6.6095069104519233e-06  4.0264467896391478e-05 -3.0632365660913110e-03 6.6224002142223153e-06  4.1096481028495764e-05 -3.1278654907551358e-03 6.6972343750837841e-06  4.1931064383431023e-05 -3.1926298970081559e-03 6.7180277626978057e-06  4.2796844284895673e-05 -3.2575555036910234e-03 6.7402322704089846e-06  4.3646109913213739e-05 -3.3225773563016212e-03 6.7383291520419546e-06  4.4494405453113572e-05 -3.3877052189952013e-03 6.7490840328298661e-06  4.5359805112265956e-05 -3.4529434860782800e-03 6.7377740965323231e-06  4.6209608888162808e-05 -3.5182726277829617e-03 6.7506394755602966e-06  4.7054997890762935e-05 -3.5836895173059582e-03 6.7730764269120684e-06  4.7901771380571520e-05 -3.6491580852655381e-03 6.7985419347528218e-06  4.8772870528469724e-05 -3.7147077307648807e-03 6.8086556809175127e-06  4.9622816239977193e-05 -3.7803022415110439e-03 6.8108639491084497e-06  5.0487255812373678e-05 -3.8459489476260485e-03 6.8153000163293788e-06  5.1348618651350868e-05 -3.9116360447869437e-03 6.8143954648405972e-06  5.2212482344122909e-05 -3.9773648397136586e-03 6.8125760214849627e-06  5.3068453042944896e-05 -4.0431226498892376e-03 6.8238411109209468e-06  5.3923871538622689e-05 -4.1089083996553909e-03 6.8323326256069540e-06  5.4789512162192980e-05 -4.1747161907284887e-03 6.8340544262896802e-06  5.5653982963907370e-05 -4.2405356960924286e-03 6.8329108384614711e-06  5.6515891971601157e-05 -4.3063688200145932e-03 6.8364206941221889e-06  5.7373793279697086e-05 -4.3722087728079598e-03 6.8411735750157372e-06  5.8235255543176091e-05 -4.4380555343333768e-03 6.8424543386981443e-06  5.9098372513067243e-05 -4.5039056897046336e-03 6.8428191585318539e-06  5.9960794473547532e-05 -4.5697540440934447e-03 6.8430061729394039e-06  6.0821429852277009e-05 -4.6356014521037056e-03 6.8423472331038931e-06  6.1683875683683591e-05 -4.7014470489099985e-03 6.8425359360687935e-06  6.2544701569902300e-05 -4.7672897964400173e-03 6.8425728233257703e-06  6.3578871576340688e-05 -4.8535356786574271e-03 -8.1099095756312934e-06  6.3663056361618352e-05 -4.8529742009091065e-03 2.5197429342478731e-06  6.3742813915533645e-05 -4.8523970669630259e-03 1.2291535174532577e-05  6.3819180956590214e-05 -4.8518091594957685e-03 2.1656922251032789e-05  6.3890638592121877e-05 -4.8512183364035396e-03 3.0554506883486782e-05  6.3955991171834515e-05 -4.8506292854331784e-03 3.8833651417113135e-05  6.4019769112631599e-05 -4.8500390422462078e-03 4.6927440257080114e-05  6.4080208942700120e-05 -4.8494483575183597e-03 5.4528742769204802e-05  6.4134351268107747e-05 -4.8488565091293892e-03 6.1519357033960792e-05  6.4187015935547384e-05 -4.8482637480211392e-03 6.8100729451454903e-05  6.4234697633158797e-05 -4.8476645948753051e-03 7.4272222740524562e-05  6.4278293161186296e-05 -4.8470619823997802e-03 7.9771036109082920e-05  6.4316545153017169e-05 -4.8464544411315983e-03 8.4750070723153516e-05  6.4351358925896662e-05 -4.8458480613430268e-03 8.9165327614555728e-05  6.4379622809711384e-05 -4.8452352265218853e-03 9.2926661391837346e-05  6.4404555694333785e-05 -4.8446202075188433e-03 9.6005655768776317e-05  6.4424659738519680e-05 -4.8439999809654841e-03 9.8676043662468147e-05  6.4441831550737802e-05 -4.8433752662751543e-03 1.0092988505390634e-04  6.4454905421620359e-05 -4.8427453117793149e-03 1.0261242752756433e-04  6.4462540322298372e-05 -4.8421118301264924e-03 1.0373626809528485e-04  6.4467981429976314e-05 -4.8414755265041741e-03 1.0467670043980350e-04  6.4468135861292506e-05 -4.8408343546876859e-03 1.0501853025351395e-04  6.4466065019130571e-05 -4.8401881256275097e-03 1.0506755621337153e-04  6.4460875867849361e-05 -4.8395373839953456e-03 1.0470615779159043e-04  6.4447797892542281e-05 -4.8388835310230706e-03 1.0366596082413902e-04  6.4427566553059754e-05 -4.8382254254957209e-03 1.0196645664911356e-04  6.4398219555766636e-05 -4.8375636026763242e-03 9.9372319120452757e-05  6.4362384824490611e-05 -4.8368982440626972e-03 9.6165773970808259e-05  6.4315345399174658e-05 -4.8362296891042624e-03 9.2026447430257967e-05  6.4253458469348785e-05 -4.8355589977775266e-03 8.6559752845466546e-05  6.4171612666968813e-05 -4.8348895737138032e-03 7.9265965475189306e-05  6.4056965843654374e-05 -4.8342218815341344e-03 6.8784125446420840e-05  6.3874864806841297e-05 -4.8335689962881734e-03 5.1873829609627946e-05  -2.2787401620208350e-07 4.6926135712727851e-07 -3.5823447576668305e-08  -4.2044865654015834e-07 8.3828398012181858e-08 -2.0816177517983037e-07  -4.9008927652255679e-07 -7.9617954482814751e-07 -6.4956700765018245e-07  -3.6746879057265828e-07 -4.3529946962135962e-06 -1.4005247990716982e-06  1.9923779118836554e-09 -8.3847084441800895e-06 -2.0869427363054849e-06  1.5030771239060322e-07 -1.2977107678300585e-05 -2.3033954294790120e-06  2.9264506210800845e-07 -2.2011488600596963e-05 -2.6211196297854851e-06  4.9677057002225878e-07 -3.1563244981053024e-05 -2.9811016046728135e-06  3.7605434543956607e-07 -4.2678366910524573e-05 -3.2871902199913968e-06  6.2707542909198250e-07 -5.5512565463723744e-05 -3.9327844155809119e-06  1.2273325867320291e-06 -7.0592203525714786e-05 -4.7870865574949507e-06  1.8129009452003415e-06 -8.6369750589432675e-05 -5.6582951176445053e-06  2.4874836841448888e-06 -1.0294802294465936e-04 -6.4860026352591461e-06  2.4263331877697304e-06 -1.2445463874733993e-04 -6.5929050265818467e-06  2.8707853214376337e-06 -1.4736603970438744e-04 -6.9729561166615459e-06  3.1122808762989695e-06 -1.7048996522646740e-04 -7.5638211131080799e-06  3.4793780043925709e-06 -1.9617367686267478e-04 -8.0936263380510468e-06  3.7986286740266125e-06 -2.2414895240533577e-04 -8.9500713697116871e-06  4.1219195789609258e-06 -2.5413590846075178e-04 -9.8801546348929526e-06  4.6450750795411106e-06 -2.8606025268670824e-04 -1.0102145107236235e-05  4.8524477848001082e-06 -3.1924951324607722e-04 -1.0300120909756606e-05  5.2615252168603614e-06 -3.5293594198814631e-04 -1.0667057007041416e-05  5.7554204750824703e-06 -3.8755887578730355e-04 -1.0927691828182357e-05  6.1652688053168965e-06 -4.2363200346047600e-04 -1.1354558857891193e-05  6.7315375387209608e-06 -4.6086266976759613e-04 -1.1849508958034293e-05  7.1377542185164752e-06 -4.9933087984468363e-04 -1.1889264898078344e-05  7.6578314399082141e-06 -5.3935339216314734e-04 -1.2668926108407928e-05  8.0952085916278246e-06 -5.8120010027171533e-04 -1.3014900941643952e-05  8.6350628056917314e-06 -6.2360256895485156e-04 -1.3393203598610175e-05  9.3818412090893116e-06 -6.6714222922161285e-04 -1.3845302089670091e-05  1.0002277608425656e-05 -7.1093826892654633e-04 -1.4065952280626172e-05  1.0549013106842958e-05 -7.5561059441008526e-04 -1.4113642488017526e-05  1.1185623285196799e-05 -8.0138689037000110e-04 -1.4501144267683499e-05  1.1734954938622890e-05 -8.4829716016012304e-04 -1.4844595001716902e-05  1.2276691670419491e-05 -8.9642111123276974e-04 -1.4850608695950003e-05  1.2956182005671438e-05 -9.4490417398336091e-04 -1.5300450818616612e-05  1.3683985760515076e-05 -9.9362547560413782e-04 -1.5347061929556590e-05  1.4397950353738765e-05 -1.0440392169399500e-03 -1.5608748136652879e-05  1.4995546092609986e-05 -1.0952193617406976e-03 -1.5969409437853931e-05  1.5708398644463376e-05 -1.1470060431613114e-03 -1.6244824550412058e-05  1.6338134540810928e-05 -1.2004192789526391e-03 -1.6561711175601874e-05  1.7007629877374002e-05 -1.2542588108161200e-03 -1.6729114268339672e-05  1.7705726636785821e-05 -1.3086467119753772e-03 -1.6974993079265672e-05  1.8412417763379726e-05 -1.3632841795575498e-03 -1.7038309149417419e-05  1.9131778440383260e-05 -1.4188903435991174e-03 -1.7112569161103652e-05  1.9855233595104376e-05 -1.4748058533081685e-03 -1.7309612748157440e-05  2.0504022542968478e-05 -1.5315218248901045e-03 -1.7445641849440008e-05  2.1242005530332476e-05 -1.5884428830743775e-03 -1.7557922095029338e-05  2.1923147523306207e-05 -1.6458791486212699e-03 -1.7801659155239219e-05  2.2766341190885161e-05 -1.7041296455605993e-03 -1.7970687807388646e-05  2.3512021105508530e-05 -1.7628232251338065e-03 -1.8100880953923125e-05  2.4224605028843897e-05 -1.8219750492802285e-03 -1.8335612649766313e-05  2.4985114604937294e-05 -1.8816400437351099e-03 -1.8500871317690300e-05  2.5764464382934117e-05 -1.9417689390290606e-03 -1.8518145287984759e-05  2.6509910323276845e-05 -2.0022649014616849e-03 -1.8685745000009801e-05  2.7297219580828305e-05 -2.0632252431373702e-03 -1.8815695115972556e-05  2.8134352014175796e-05 -2.1242951742277260e-03 -1.8910997447107291e-05  2.8890774392087672e-05 -2.1861606551266542e-03 -1.9017293335388448e-05  2.9637725606100511e-05 -2.2485179077434618e-03 -1.9106150641248156e-05  3.0401857024812072e-05 -2.3110801904223650e-03 -1.9247543809647308e-05  3.1196250839176189e-05 -2.3737951781713168e-03 -1.9332381237183983e-05  3.2022640637624370e-05 -2.4367670913786363e-03 -1.9406883271085623e-05  3.2871697851753473e-05 -2.4997537885970093e-03 -1.9482096391547499e-05  3.3698669997128302e-05 -2.5629699529026769e-03 -1.9510308920537003e-05  3.4535143210329135e-05 -2.6263237910115339e-03 -1.9596837962037067e-05  3.5345127992560426e-05 -2.6901957908351377e-03 -1.9641178619468240e-05  3.6187162379614675e-05 -2.7541149239438110e-03 -1.9688943482650708e-05  3.7019996694568430e-05 -2.8182977250170208e-03 -1.9752222447004779e-05  3.7836315582865451e-05 -2.8828029759097890e-03 -1.9822678687703938e-05  3.8683996945635097e-05 -2.9474776774938666e-03 -1.9866219525897080e-05  3.9473498251258150e-05 -3.0124079161915605e-03 -1.9946863439859777e-05  4.0339251156079144e-05 -3.0773130611956440e-03 -1.9980755610705134e-05  4.1180991425593357e-05 -3.1424332363645092e-03 -2.0004923013503706e-05  4.2024586996553364e-05 -3.2075841175379966e-03 -2.0045414632834332e-05  4.2855336794745300e-05 -3.2729839838558862e-03 -2.0094256947196251e-05  4.3696045692645864e-05 -3.3384177739142827e-03 -2.0129873624296043e-05  4.4551648875172270e-05 -3.4039741857987997e-03 -2.0137995592475954e-05  4.5395923552796503e-05 -3.4695708715194703e-03 -2.0147636808369910e-05  4.6244403542967169e-05 -3.5352984148266345e-03 -2.0169367764587219e-05  4.7094094335434097e-05 -3.6010878322260617e-03 -2.0184563230771289e-05  4.7950319404576735e-05 -3.6668837656146521e-03 -2.0196320801859437e-05  4.8803188978137094e-05 -3.7327365052630709e-03 -2.0213756413973488e-05  4.9659781106078723e-05 -3.7986022622138304e-03 -2.0228824997039386e-05  5.0528405325121348e-05 -3.8645196318891828e-03 -2.0225051734474472e-05  5.1394245146478288e-05 -3.9304581653052595e-03 -2.0228099395305083e-05  5.2247093037760523e-05 -3.9964469634841005e-03 -2.0229762538377025e-05  5.3103029241997796e-05 -4.0624539509690541e-03 -2.0236055063792282e-05  5.3965202744147699e-05 -4.1284513953442408e-03 -2.0235888839352308e-05  5.4832093282608789e-05 -4.1944507360324674e-03 -2.0233582533387821e-05  5.5689963839242002e-05 -4.2604768629538785e-03 -2.0236159652427184e-05  5.6552713801413285e-05 -4.3264769036878235e-03 -2.0228967113208493e-05  5.7420768781510568e-05 -4.3924518417295423e-03 -2.0228848595679640e-05  5.8286962304913574e-05 -4.4584217893721212e-03 -2.0226432903038123e-05  5.9152209415563916e-05 -4.5243918044696498e-03 -2.0221527189833067e-05  6.0019176190988796e-05 -4.5903439191210278e-03 -2.0218643827323254e-05  6.0882464263345315e-05 -4.6562905839249401e-03 -2.0212763983943805e-05  6.1747325234056094e-05 -4.7222380515381376e-03 -2.0210834048163109e-05  6.2614744096054867e-05 -4.7881627281035413e-03 -2.0212109710151942e-05  6.2958123991630849e-05 -4.8336044170196575e-03 -3.7168643272769972e-05  6.2756202088982423e-05 -4.8342516921207170e-03 -5.7660316644706291e-05  6.2641722790809110e-05 -4.8349187433226158e-03 -6.9833935189329168e-05  6.2557418466127029e-05 -4.8355884009109971e-03 -7.9125052322336770e-05  6.2494512036814670e-05 -4.8362578910832316e-03 -8.6486833643176664e-05  6.2447444745075681e-05 -4.8369257990674049e-03 -9.2535895750191083e-05  6.2410131863319546e-05 -4.8375906368223051e-03 -9.7690602555200215e-05  6.2386166504144560e-05 -4.8382516548928526e-03 -1.0172809045188990e-04  6.2370071479879945e-05 -4.8389096319157053e-03 -1.0495259546320370e-04  6.2363715914354125e-05 -4.8395636855808766e-03 -1.0747020671774564e-04  6.2364082839728120e-05 -4.8402130252924004e-03 -1.0933310167770660e-04  6.2369381505775225e-05 -4.8408588402952995e-03 -1.1070433809169168e-04  6.2380699001203662e-05 -4.8415003393401908e-03 -1.1147623676