<?xml version="1.0"?>
<VTKFile type="UnstructuredGrid"  version="0.1"  >
<UnstructuredGrid>
<Piece  NumberOfPoints="10958" NumberOfCells="41820">
<Points>
<DataArray  type="Float64"  NumberOfComponents="3"  format="ascii">1 0.04955 0  3.483770450905253e-06 0.04864772283650545 0  3.483770450905253e-06 0.04864772283650545 2.95  1 0.04955 2.95  0.9705745651584323 0.0546328692740541 0  0.9410403409854562 0.05904933268918263 0  0.9114506936029688 0.06307764259166145 0  0.8818365365778597 0.06692205633990718 0  0.852195425756178 0.07055529100758898 0  0.8225213484314672 0.07390813590379837 0  0.7928382076274137 0.07717791230068967 0  0.7631311412584285 0.08022519712851128 0  0.7333970986343074 0.08299595685799818 0  0.7036468593402103 0.08558339900696151 0  0.6738808305098906 0.08798485813956464 0  0.6440919092681797 0.09008334865923617 0  0.6142870835549664 0.09194561288677774 0  0.5844675933514397 0.09355367701932085 0  0.5546335832429207 0.09486496269114339 0  0.5247876530181904 0.095868659884793 0  0.4949363523436856 0.09668736484019783 0  0.4650802095563029 0.09731740696399105 0  0.4352195800941197 0.09768943189876603 0  0.405357042743103 0.09780828360274334 0  0.3754942534896675 0.09784351677757946 0  0.3456322298379585 0.09760772238205492 0  0.3157719755355017 0.09723970101506153 0  0.2859142869264596 0.09668561931752166 0  0.2560638915081948 0.09582390318294828 0  0.2262236143831659 0.09466390431188013 0  0.1964020995566796 0.09309886371899376 0  0.1665963941161298 0.09125714074218327 0  0.1368197180220126 0.08899319787719009 0  0.1070946678970156 0.08612945256268216 0  0.07746305623222323 0.08244010579101241 0  0.04805012948181673 0.07731042839253653 0  0.01932358256457366 0.06928107812002522 0  3.483770450905253e-06 0.04864772283650545 0.02979797979797999  3.483770450905253e-06 0.04864772283650545 0.05959595959595966  3.483770450905253e-06 0.04864772283650545 0.08939393939393965  3.483770450905253e-06 0.04864772283650545 0.1191919191919193  3.483770450905253e-06 0.04864772283650545 0.1489898989898993  3.483770450905253e-06 0.04864772283650545 0.178787878787879  3.483770450905253e-06 0.04864772283650545 0.2085858585858589  3.483770450905253e-06 0.04864772283650545 0.2383838383838386  3.483770450905253e-06 0.04864772283650545 0.2681818181818186  3.483770450905253e-06 0.04864772283650545 0.2979797979797986  3.483770450905253e-06 0.04864772283650545 0.3277777777777782  3.483770450905253e-06 0.04864772283650545 0.3575757575757582  3.483770450905253e-06 0.04864772283650545 0.3873737373737379  3.483770450905253e-06 0.04864772283650545 0.4171717171717179  3.483770450905253e-06 0.04864772283650545 0.4469696969696979  3.483770450905253e-06 0.04864772283650545 0.4767676767676775  3.483770450905253e-06 0.04864772283650545 0.5065656565656572  3.483770450905253e-06 0.04864772283650545 0.5363636363636372  3.483770450905253e-06 0.04864772283650545 0.5661616161616169  3.483770450905254e-06 0.04864772283650545 0.5959595959595969  3.483770450905253e-06 0.04864772283650545 0.6257575757575765  3.483770450905254e-06 0.04864772283650545 0.6555555555555564  3.483770450905253e-06 0.04864772283650545 0.6853535353535362  3.483770450905253e-06 0.04864772283650545 0.7151515151515158  3.483770450905253e-06 0.04864772283650545 0.7449494949494958  3.483770450905253e-06 0.04864772283650545 0.7747474747474755  3.483770450905253e-06 0.04864772283650545 0.8045454545454552  3.483770450905253e-06 0.04864772283650545 0.8343434343434351  3.483770450905253e-06 0.04864772283650545 0.8641414141414151  3.483770450905253e-06 0.04864772283650545 0.8939393939393945  3.483770450905254e-06 0.04864772283650545 0.9237373737373745  3.483770450905253e-06 0.04864772283650545 0.9535353535353545  3.483770450905254e-06 0.04864772283650545 0.9833333333333341  3.483770450905253e-06 0.04864772283650545 1.013131313131314  3.483770450905254e-06 0.04864772283650545 1.042929292929294  3.483770450905253e-06 0.04864772283650545 1.072727272727274  3.483770450905254e-06 0.04864772283650545 1.102525252525254  3.483770450905253e-06 0.04864772283650545 1.132323232323234  3.483770450905254e-06 0.04864772283650545 1.162121212121214  3.483770450905253e-06 0.04864772283650545 1.191919191919194  3.483770450905254e-06 0.04864772283650545 1.221717171717174  3.483770450905253e-06 0.04864772283650545 1.251515151515153  3.483770450905254e-06 0.04864772283650545 1.281313131313133  3.483770450905253e-06 0.04864772283650545 1.311111111111113  3.483770450905253e-06 0.04864772283650545 1.340909090909093  3.483770450905253e-06 0.04864772283650545 1.370707070707073  3.483770450905253e-06 0.04864772283650545 1.400505050505053  3.483770450905253e-06 0.04864772283650545 1.430303030303033  3.483770450905253e-06 0.04864772283650545 1.460101010101013  3.483770450905253e-06 0.04864772283650545 1.489898989898993  3.483770450905253e-06 0.04864772283650545 1.519696969696973  3.483770450905253e-06 0.04864772283650545 1.549494949494953  3.483770450905253e-06 0.04864772283650545 1.579292929292933  3.483770450905253e-06 0.04864772283650545 1.609090909090913  3.483770450905253e-06 0.04864772283650545 1.638888888888893  3.483770450905254e-06 0.04864772283650545 1.668686868686872  3.483770450905253e-06 0.04864772283650545 1.698484848484852  3.483770450905254e-06 0.04864772283650545 1.728282828282832  3.483770450905253e-06 0.04864772283650545 1.758080808080812  3.483770450905254e-06 0.04864772283650545 1.787878787878792  3.483770450905253e-06 0.04864772283650545 1.817676767676772  3.483770450905254e-06 0.04864772283650545 1.847474747474752  3.483770450905253e-06 0.04864772283650545 1.877272727272732  3.483770450905254e-06 0.04864772283650545 1.907070707070712  3.483770450905253e-06 0.04864772283650545 1.936868686868691  3.483770450905253e-06 0.04864772283650545 1.966666666666671  3.483770450905253e-06 0.04864772283650545 1.996464646464651  3.483770450905253e-06 0.04864772283650545 2.02626262626263  3.483770450905253e-06 0.04864772283650545 2.056060606060611  3.483770450905253e-06 0.04864772283650545 2.08585858585859  3.483770450905254e-06 0.04864772283650545 2.11565656565657  3.483770450905253e-06 0.04864772283650545 2.14545454545455  3.483770450905253e-06 0.04864772283650545 2.175252525252529  3.483770450905253e-06 0.04864772283650545 2.205050505050508  3.483770450905253e-06 0.04864772283650545 2.234848484848488  3.483770450905253e-06 0.04864772283650545 2.264646464646468  3.483770450905253e-06 0.04864772283650545 2.294444444444448  3.483770450905253e-06 0.04864772283650545 2.324242424242427  3.483770450905253e-06 0.04864772283650545 2.354040404040407  3.483770450905253e-06 0.04864772283650545 2.383838383838387  3.483770450905254e-06 0.04864772283650545 2.413636363636366  3.483770450905253e-06 0.04864772283650545 2.443434343434346  3.483770450905253e-06 0.04864772283650545 2.473232323232326  3.483770450905253e-06 0.04864772283650545 2.503030303030305  3.483770450905253e-06 0.04864772283650545 2.532828282828285  3.483770450905253e-06 0.04864772283650545 2.562626262626264  3.483770450905253e-06 0.04864772283650545 2.592424242424244  3.483770450905254e-06 0.04864772283650545 2.622222222222224  3.483770450905253e-06 0.04864772283650545 2.652020202020203  3.483770450905253e-06 0.04864772283650545 2.681818181818183  3.483770450905253e-06 0.04864772283650545 2.711616161616163  3.483770450905253e-06 0.04864772283650545 2.741414141414142  3.483770450905254e-06 0.04864772283650545 2.771212121212122  3.483770450905253e-06 0.04864772283650545 2.801010101010102  3.483770450905253e-06 0.04864772283650545 2.830808080808081  3.483770450905253e-06 0.04864772283650545 2.860606060606061  3.483770450905253e-06 0.04864772283650545 2.890404040404041  3.483770450905253e-06 0.04864772283650545 2.92020202020202  0.9705745651584323 0.0546328692740541 2.95  0.9410403409854562 0.05904933268918263 2.95  0.9114506936029688 0.06307764259166145 2.95  0.8818365365778597 0.06692205633990718 2.95  0.852195425756178 0.07055529100758898 2.95  0.8225213484314672 0.07390813590379837 2.95  0.7928382076274137 0.07717791230068967 2.95  0.7631311412584285 0.08022519712851128 2.95  0.7333970986343074 0.08299595685799818 2.95  0.7036468593402103 0.08558339900696151 2.95  0.6738808305098906 0.08798485813956464 2.95  0.6440919092681797 0.09008334865923617 2.95  0.6142870835549664 0.09194561288677774 2.95  0.5844675933514397 0.09355367701932085 2.95  0.5546335832429207 0.09486496269114339 2.95  0.5247876530181904 0.095868659884793 2.95  0.4949363523436856 0.09668736484019783 2.95  0.4650802095563029 0.09731740696399105 2.95  0.4352195800941197 0.09768943189876603 2.95  0.405357042743103 0.09780828360274334 2.95  0.3754942534896675 0.09784351677757946 2.95  0.3456322298379585 0.09760772238205492 2.95  0.3157719755355017 0.09723970101506153 2.95  0.2859142869264596 0.09668561931752166 2.95  0.2560638915081948 0.09582390318294828 2.95  0.2262236143831659 0.09466390431188013 2.95  0.1964020995566796 0.09309886371899376 2.95  0.1665963941161298 0.09125714074218327 2.95  0.1368197180220126 0.08899319787719009 2.95  0.1070946678970156 0.08612945256268216 2.95  0.07746305623222323 0.08244010579101241 2.95  0.04805012948181673 0.07731042839253653 2.95  0.01932358256457366 0.06928107812002522 2.95  1 0.04955 0.02979797979797999  1 0.04955 0.05959595959595966  1 0.04955 0.08939393939393965  1 0.04955 0.1191919191919193  1 0.04955 0.1489898989898993  1 0.04955 0.178787878787879  1 0.04955 0.2085858585858589  1 0.04955 0.2383838383838386  1 0.04955 0.2681818181818186  1 0.04955 0.2979797979797986  1 0.04955 0.3277777777777782  1 0.04955 0.3575757575757582  1 0.04955 0.3873737373737379  1 0.04955 0.4171717171717179  1 0.04955 0.4469696969696979  1 0.04955 0.4767676767676775  1 0.04955 0.5065656565656572  1 0.04955 0.5363636363636372  1 0.04955 0.5661616161616169  1 0.04955 0.5959595959595969  1 0.04955 0.6257575757575765  1 0.04955 0.6555555555555564  1 0.04955 0.6853535353535362  1 0.04955 0.7151515151515158  1 0.04955 0.7449494949494958  1 0.04955 0.7747474747474755 
[...]
<PointData  Vectors="Displacement"> 
<DataArray  type="Float64"  Name="Displacement"  NumberOfComponents="3" format="ascii">0.0000000000000000e+00 0.0000000000000000e+00 0.0000000000000000e+00  0.0000000000000000e+00 0.0000000000000000e+00 0.0000000000000000e+00  9.4041433589228181e-06 -7.8160114374157565e-04 7.9314099352807001e-07  9.4028497948655618e-06 -7.8759011292361871e-04 -2.5367304773688961e-06  0.0000000000000000e+00 0.0000000000000000e+00 0.0000000000000000e+00  0.0000000000000000e+00 0.0000000000000000e+00 0.0000000000000000e+00  0.0000000000000000e+00 0.0000000000000000e+00 0.0000000000000000e+00  0.0000000000000000e+00 0.0000000000000000e+00 0.0000000000000000e+00  0.0000000000000000e+00 0.0000000000000000e+00 0.0000000000000000e+00  0.0000000000000000e+00 0.0000000000000000e+00 0.0000000000000000e+00  0.0000000000000000e+00 0.0000000000000000e+00 0.0000000000000000e+00  0.0000000000000000e+00 0.0000000000000000e+00 0.0000000000000000e+00  0.0000000000000000e+00 0.0000000000000000e+00 0.0000000000000000e+00  0.0000000000000000e+00 0.0000000000000000e+00 0.0000000000000000e+00  0.0000000000000000e+00 0.0000000000000000e+00 0.0000000000000000e+00  0.0000000000000000e+00 0.0000000000000000e+00 0.0000000000000000e+00  0.0000000000000000e+00 0.0000000000000000e+00 0.0000000000000000e+00  0.0000000000000000e+00 0.0000000000000000e+00 0.0000000000000000e+00  0.0000000000000000e+00 0.0000000000000000e+00 0.0000000000000000e+00  0.0000000000000000e+00 0.0000000000000000e+00 0.0000000000000000e+00  0.0000000000000000e+00 0.0000000000000000e+00 0.0000000000000000e+00  0.0000000000000000e+00 0.0000000000000000e+00 0.0000000000000000e+00  0.0000000000000000e+00 0.0000000000000000e+00 0.0000000000000000e+00  0.0000000000000000e+00 0.0000000000000000e+00 0.0000000000000000e+00  0.0000000000000000e+00 0.0000000000000000e+00 0.0000000000000000e+00  0.0000000000000000e+00 0.0000000000000000e+00 0.0000000000000000e+00  0.0000000000000000e+00 0.0000000000000000e+00 0.0000000000000000e+00  0.0000000000000000e+00 0.0000000000000000e+00 0.0000000000000000e+00  0.0000000000000000e+00 0.0000000000000000e+00 0.0000000000000000e+00  0.0000000000000000e+00 0.0000000000000000e+00 0.0000000000000000e+00  0.0000000000000000e+00 0.0000000000000000e+00 0.0000000000000000e+00  0.0000000000000000e+00 0.0000000000000000e+00 0.0000000000000000e+00  0.0000000000000000e+00 0.0000000000000000e+00 0.0000000000000000e+00  0.0000000000000000e+00 0.0000000000000000e+00 0.0000000000000000e+00  0.0000000000000000e+00 0.0000000000000000e+00 0.0000000000000000e+00  0.0000000000000000e+00 0.0000000000000000e+00 0.0000000000000000e+00  0.0000000000000000e+00 0.0000000000000000e+00 0.0000000000000000e+00  -1.5719555038597122e-08 1.7143063559519753e-07 1.7048496995438123e-08  1.9660364851374645e-08 -2.8124425528468575e-08 1.0681963919867066e-07  5.5696524673748078e-08 -5.9039949628417317e-07 2.0757862371973410e-07  1.0246395877050821e-07 -1.6076884027444430e-06 2.2763923978810048e-07  9.5136283812715771e-08 -3.0600580334512469e-06 2.5955824054795143e-07  1.4752575172479068e-07 -4.9794330376867155e-06 2.7786316649067123e-07  1.7326980974097197e-07 -7.3896954244479789e-06 2.7613112684784047e-07  1.9287412277290542e-07 -1.0152724373403361e-05 3.5961570537371747e-07  2.4650991512180642e-07 -1.3331369761858683e-05 3.8626607441351945e-07  2.7256349834051676e-07 -1.6943913958611538e-05 4.0613916913548981e-07  3.4334907850078129e-07 -2.0897971718832589e-05 4.3916420928432751e-07  4.1816352879737047e-07 -2.5206287731249822e-05 4.4335140094547782e-07  4.4485055981739646e-07 -2.9902036038266297e-05 4.7690911564609669e-07  5.1657346419354527e-07 -3.4877701811586701e-05 4.2415085832901585e-07  5.4875597946486854e-07 -4.0165022439408295e-05 4.9748025101119909e-07  6.4210792310483177e-07 -4.5776127279115453e-05 4.8459923056580250e-07  7.0501726910701138e-07 -5.1586153217909460e-05 5.1993250991398261e-07  7.5518936953012623e-07 -5.7786936361201472e-05 5.4877819572282873e-07  8.5396070229409890e-07 -6.4211777597018350e-05 5.8181299617734023e-07  9.3162346016965835e-07 -7.0854956623105989e-05 5.4242119624911833e-07  1.0074497067688331e-06 -7.7664034343898921e-05 6.1306313550290114e-07  1.0784971279186316e-06 -8.4678811431664920e-05 6.7602820606240759e-07  1.2099029102526689e-06 -9.1908639734083824e-05 6.7506446472352586e-07  1.2710392887558490e-06 -9.9301694531898644e-05 6.8459663117378420e-07  1.3847091464522671e-06 -1.0685525618478562e-04 6.9444708862293482e-07  1.4920777749971260e-06 -1.1457133079366402e-04 6.6277969012346580e-07  1.5588844194769832e-06 -1.2249411800699565e-04 6.5869524171497197e-07  1.6401863147317866e-06 -1.3054117562381494e-04 7.0309592883893895e-07  1.7366536966369381e-06 -1.3875887049414343e-04 7.2725166438977524e-07  1.8467760135968033e-06 -1.4708329706033190e-04 7.4507773481265208e-07  1.9441440930401480e-06 -1.5550335724335684e-04 7.6068551382539617e-07  2.0483724593621730e-06 -1.6403105204755437e-04 7.7028921556071920e-07  2.1568511036486615e-06 -1.7267293481256166e-04 7.7101263633865828e-07  2.2680578948829470e-06 -1.8141459252978375e-04 7.5825600859458800e-07  2.3604480945194752e-06 -1.9020818749459353e-04 7.6409716122410140e-07  2.4556778821969839e-06 -1.9909272942836563e-04 7.9166982523414817e-07  2.5759483554556384e-06 -2.0805825427103566e-04 7.9639707065324512e-07  2.6871832974030845e-06 -2.1709266358866140e-04 7.9729019027833128e-07  2.7970488626241897e-06 -2.2618888866616387e-04 7.8832928970747514e-07  2.8964817056634709e-06 -2.3531487675232423e-04 8.0108620282994159e-07  3.0069958495472551e-06 -2.4449722407483891e-04 8.1176108883362472e-07  3.1205504980573260e-06 -2.5374417744590088e-04 8.1898856891656847e-07  3.2260344555765002e-06 -2.6302643576365094e-04 8.2473481336863985e-07  3.3423423383521453e-06 -2.7234297411627702e-04 8.2538558708276548e-07  3.4554055198004646e-06 -2.8169114302852217e-04 8.2525754841143166e-07  3.5658723563848440e-06 -2.9106327027215837e-04 8.2470287984421570e-07  3.6819778995833931e-06 -3.0045162635623888e-04 8.2113484635692915e-07  3.7914256891860196e-06 -3.0985975806835039e-04 8.2608870762426193e-07  3.9020265281373004e-06 -3.1927977440523856e-04 8.2764895820039885e-07  4.0165031063994671e-06 -3.2871460424945621e-04 8.3129706621834777e-07  4.1263527350894113e-06 -3.3816076553368430e-04 8.3358316562969866e-07  4.2391550195880564e-06 -3.4761206953542231e-04 8.3316220465478403e-07  4.3557208762299072e-06 -3.5706668177554516e-04 8.3204747210341910e-07  4.4663311546697964e-06 -3.6652139866447364e-04 8.3232234956702771e-07  4.5802162509126569e-06 -3.7597493060813748e-04 8.3365148172788297e-07  4.6934324654223130e-06 -3.8542383636454503e-04 8.3279053982472621e-07  4.8061687738227408e-06 -3.9486865456907867e-04 8.3297936809455378e-07  4.9172835977528539e-06 -4.0430555779335717e-04 8.2970131789635481e-07  5.0278669718495049e-06 -4.1373644049218748e-04 8.2811901025930197e-07  5.1426695725230505e-06 -4.2315895291408377e-04 8.3044250182346630e-07  5.2563124053201115e-06 -4.3257041537616317e-04 8.2953592862842894e-07  5.3673578808738569e-06 -4.4196846387767758e-04 8.2400659243188564e-07  5.4764005208695445e-06 -4.5135381562347619e-04 8.2356894505126195e-07  5.5888018328202587e-06 -4.6072573663333776e-04 8.2517989098422841e-07  5.7023074497803103e-06 -4.7008433825822721e-04 8.2551002734872519e-07  5.8128369029778647e-06 -4.7943003310271299e-04 8.1953874634841588e-07  5.9248042562667025e-06 -4.8876062016458080e-04 8.1600841250108110e-07  6.0331033660547433e-06 -4.9807976578374828e-04 8.1552123899148947e-07  6.1460526956178397e-06 -5.0738177812123780e-04 8.1342965656956647e-07  6.2534266812024788e-06 -5.1666968643768066e-04 8.1222675452819153e-07  6.3639234945351826e-06 -5.2594139402252623e-04 8.1559943950308225e-07  6.4764553444805984e-06 -5.3519463188677631e-04 8.1483667349683634e-07  6.5861009211843785e-06 -5.4443679969794494e-04 8.0862959569004711e-07  6.6970610343645144e-06 -5.5366597724719024e-04 8.0653459515889401e-07  6.8049085589227837e-06 -5.6287884172255814e-04 8.0431418934739805e-07  6.9147178280178376e-06 -5.7208014400426488e-04 8.0484750238600154e-07  7.0237016618619003e-06 -5.8126927346646966e-04 8.0350323766639418e-07  7.1317853264839467e-06 -5.9044499879460797e-04 8.0493889804607836e-07  7.2414137909597884e-06 -5.9960928732697273e-04 8.0408886567638483e-07  7.3510385275265166e-06 -6.0876172890490126e-04 8.0164550893139689e-07  7.4606006545233522e-06 -6.1790672288419227e-04 7.9831129749594621e-07  7.5674055818101730e-06 -6.2704024395884178e-04 7.9702772471472136e-07  7.6769752317606229e-06 -6.3616656009460131e-04 7.9683177897718847e-07  7.7844093030797498e-06 -6.4528487120353020e-04 7.9616826064555690e-07  7.8923327032961079e-06 -6.5439664006051437e-04 7.9640958373397082e-07  8.0001866330011674e-06 -6.6350127252107346e-04 7.9691819496595868e-07  8.1089154942827312e-06 -6.7260085544757994e-04 7.9551993107088335e-07  8.2175467325699848e-06 -6.8169527623015307e-04 7.9430269335699187e-07  8.3248248857276173e-06 -6.9078540874608794e-04 7.9409034152985305e-07  8.4324213430530293e-06 -6.9987291296063953e-04 7.9443602828524692e-07  8.5404158344318513e-06 -7.0895750467105014e-04 7.9409141500983335e-07  8.6487589273547398e-06 -7.1804031717938430e-04 7.9323060713575063e-07  8.7567443711760385e-06 -7.2712136443983601e-04 7.9301402340206728e-07  8.8643810814550393e-06 -7.3620133885156575e-04 7.9298985508496282e-07  8.9722014585874760e-06 -7.4528116907072171e-04 7.9304583987878209e-07  9.0802419695213928e-06 -7.5436084824766691e-04 7.9314780016490444e-07  9.1880468710485861e-06 -7.6344059325646153e-04 7.9316519604027350e-07  9.2960815322016855e-06 -7.7252064081653163e-04 7.9315636144948256e-07  9.4346671328320297e-06 -7.8740637105613920e-04 -8.8402645372454431e-07  9.4620364472459648e-06 -7.8722324131116613e-04 5.6650495848201965e-07  9.4866504488626014e-06 -7.8704146846204838e-04 1.8992130966471421e-06  9.5101250925332460e-06 -7.8686071823906914e-04 3.1760939795498009e-06  9.5324339788114303e-06 -7.8667994792110812e-04 4.3890104852365963e-06  9.5530932667414486e-06 -7.8649848778775328e-04 5.5165468535016545e-06  9.5732325627920642e-06 -7.8631706761011892e-04 6.6190877972731482e-06  9.5918590551191748e-06 -7.8613544423227302e-04 7.6541384417153635e-06  9.6089125448000059e-06 -7.8595370885371394e-04 8.6050546447750684e-06  9.6245628788498209e-06 -7.8577192612771650e-04 9.5007979041334125e-06  9.6392606022199560e-06 -7.8559085978018234e-04 1.0339832725596073e-05  9.6518581762100377e-06 -7.8541001701697122e-04 1.1087156503498289e-05  9.6631032690213204e-06 -7.8522966252343751e-04 1.1762307638895839e-05  9.6726139535570763e-06 -7.8504895372301321e-04 1.2360367628331760e-05  9.6803975876171723e-06 -7.8486890220428045e-04 1.2867854375219644e-05  9.6859702447080401e-06 -7.8468896098322514e-04 1.3282058910200139e-05  9.6905729919847452e-06 -7.8450961835298759e-04 1.3639915465539597e-05  9.6939204757161599e-06 -7.8433072145754623e-04 1.3940276857588967e-05  9.6955683282960468e-06 -7.8415237165110224e-04 1.4162192425704337e-05  9.6957172770140388e-06 -7.8397437371399432e-04 1.4306878711263105e-05  9.6954211520904640e-06 -7.8379666570488696e-04 1.4425925596858655e-05  9.6934424459576384e-06 -7.8361950362642945e-04 1.4462340373477814e-05  9.6906048190902427e-06 -7.8344292071565516e-04 1.4458529051407332e-05  9.6865502142837244e-06 -7.8326683948150158e-04 1.4397908477837313e-05  9.6807978929299550e-06 -7.8309115128062819e-04 1.4243350561021066e-05  9.6733660922886966e-06 -7.8291604281571423e-04 1.3997853715664378e-05  9.6635756172555126e-06 -7.8274150693315755e-04 1.3628748461087293e-05  9.6521819121890291e-06 -7.8256751970701718e-04 1.3175349856130254e-05  9.6385255719565389e-06 -7.8239414962543916e-04 1.2593039227979925e-05  9.6215374290888718e-06 -7.8222148220433196e-04 1.1827816791152070e-05  9.5999253053619939e-06 -7.8204945314757810e-04 1.0810694481091788e-05  9.5699793607963172e-06 -7.8187912227302566e-04 9.3537574276098273e-06  9.5234551153996787e-06 -7.8171287685964061e-04 7.0109355542656593e-06  -5.7972967255236714e-08 -9.7745373257987835e-08 -3.7142578013649706e-08  -1.1721344613821662e-07 -3.9211485288445434e-07 -9.9653101404409165e-08  -1.3968854570030968e-07 -8.1750229170216242e-07 -2.2549472000286494e-07  -1.1527699917307177e-07 -1.9458678059841412e-06 -4.1384525418383940e-07  -3.0305857891685789e-08 -3.1948554469104876e-06 -5.7811032073777139e-07  2.9017003988301711e-09 -4.5796032763224254e-06 -6.2914252010753943e-07  3.4775637422952581e-08 -7.0033106341382457e-06 -7.0346057784627830e-07  8.0899600642976564e-08 -9.5447216639019332e-06 -7.8651964486119408e-07  5.4935238142771531e-08 -1.2443836764064989e-05 -8.5639399815404533e-07  1.1125223284212299e-07 -1.5717997559219320e-05 -9.9690885320985153e-07  2.4055654904295749e-07 -1.9488118595120070e-05 -1.1749441073533902e-06  3.6520946593049252e-07 -2.3408030257546601e-05 -1.3521052933181144e-06  5.0619966094892249e-07 -2.7499230643361085e-05 -1.5151264436330078e-06  4.9924306855420622e-07 -3.2584877329100087e-05 -1.5344918838615790e-06  5.9197552927117714e-07 -3.7942116856878710e-05 -1.6058003438141247e-06  6.3936013381298040e-07 -4.3373455035155951e-05 -1.7184269834563368e-06  7.1395568292792759e-07 -4.9266726064317683e-05 -1.8136101837593160e-06  7.7976052180056978e-07 -5.5582785650047526e-05 -1.9633015540803862e-06  8.4799041306423456e-07 -6.2250017330944129e-05 -2.1168533616795552e-06  9.4804126684213979e-07 -6.9242876817883327e-05 -2.1453424736692262e-06  9.9991286236479360e-07 -7.6438239190328448e-05 -2.1732513339607543e-06  1.0819576621563563e-06 -8.3705748298148013e-05 -2.2262784886096554e-06  1.1770774599475738e-06 -9.1130712322878610e-05 -2.2617477321470680e-06  1.2574814942681527e-06 -9.8775630686455564e-05 -2.3211929259395611e-06  1.3619219651950943e-06 -1.0657851290243417e-04 -2.3866411575449808e-06  1.4447968677844869e-06 -1.1457068406342844e-04 -2.3890732809094396e-06  1.5434327480413669e-06 -1.2275883631552258e-04 -2.4832051242715729e-06  1.6308479108966867e-06 -1.3116535214694790e-04 -2.5224017861393222e-06  1.7320577614217619e-06 -1.3964180308254548e-04 -2.5603640911427754e-06  1.8522462198810336e-06 -1.4825313460503962e-04 -2.6013276250232398e-06  1.9609988784135548e-06 -1.5688991985106796e-04 -2.6193438925238158e-06  2.0630046491066578e-06 -1.6561082195107912e-04 -2.6207307762253823e-06  2.1679729568323263e-06 -1.7446615958080611e-04 -2.6523416904206652e-06  2.2682487264361966e-06 -1.8341282178518353e-04 -2.6819648757267857e-06  2.3731727500233430e-06 -1.9246753180888608e-04 -2.6791278854054642e-06  2.4840214853535987e-06 -2.0156474133569522e-04 -2.7123141688390793e-06  2.6032054253662185e-06 -2.1067499690046305e-04 -2.7100167893202171e-06  2.7167388754512478e-06 -2.1994347091723176e-04 -2.7211835413525103e-06  2.8200302704525329e-06 -2.2924983986594613e-04 -2.7443470409841012e-06  2.9306810637032404e-06 -2.3860881780370197e-04 -2.7538077426680427e-06  3.0343435093465844e-06 -2.4809078294063216e-04 -2.7640812889059088e-06  3.1455828540525642e-06 -2.5754148520517359e-04 -2.7696494258549660e-06  3.2521207632649212e-06 -2.6702757281485363e-04 -2.7730711184083667e-06  3.3648272125094717e-06 -2.7653120918433869e-04 -2.7680381953872742e-06  3.4784165678871472e-06 -2.8604413240416104e-04 -2.7662158156250368e-06  3.5883801967437245e-06 -2.9556114256460835e-04 -2.7661593797860771e-06  3.6991651828082822e-06 -3.0510576716881156e-04 -2.7691639186751487e-06  3.8131110809687028e-06 -3.1464260273908159e-04 -2.7671445967159916e-06  3.9199738438261712e-06 -3.2422240387226884e-04 -2.7697001351743229e-06  4.0347570944820739e-06 -3.3380329688643831e-04 -2.7649187335028539e-06  4.1484182455034984e-06 -3.4338468482304584e-04 -2.7624256465656271e-06  4.2535164521847404e-06 -3.5296982102659422e-04 -2.7561417935083799e-06  4.3665040934004314e-06 -3.6252568843332986e-04 -2.7516283018587124e-06  4.4814966149628689e-06 -3.7208255866800084e-04 -2.7476982167023159e-06  4.5941412318033988e-06 -3.8164797914883378e-04 -2.7419407263273017e-06  4.7046378207104432e-06 -3.9118649140561592e-04 -2.7342544381923899e-06  4.8158312857649084e-06 -4.0073026816989153e-04 -2.7260900189868201e-06  4.9253280196452352e-06 -4.1028366997554184e-04 -2.7206646021575784e-06  5.0364334876956815e-06 -4.1978106538371194e-04 -2.7093967862774251e-06  5.1499163324886202e-06 -4.2924421996680645e-04 -2.6988247809386569e-06  5.2639893598808168e-06 -4.3869175689867823e-04 -2.6921997402601896e-06  5.3757318443623115e-06 -4.4812837576090189e-04 -2.6840372355568066e-06  5.4849548101464429e-06 -4.5756317088789544e-04 -2.6739977413927568e-06  5.5969239951763231e-06 -4.6697880246065679e-04 -2.6691105983221966e-06  5.7060734320946149e-06 -4.7638418924445366e-04 -2.6591483914173509e-06  5.8196430772503631e-06 -4.8574829904632366e-04 -2.6549429701741059e-06  5.9300368617969468e-06 -4.9510436653592055e-04 -2.6484163507063367e-06  6.0402158276286536e-06 -5.0444589726988259e-04 -2.6404575945206636e-06  6.1515614644291277e-06 -5.1376292032564248e-04 -2.6324826436038718e-06  6.2596719208854850e-06 -5.2306630208308921e-04 -2.6239872700396928e-06  6.3720337332173008e-06 -5.3234560642596743e-04 -2.6147507315543552e-06  6.4804209361992081e-06 -5.4160705738648613e-04 -2.6080375380667045e-06  6.5916213338441631e-06 -5.5084350831445896e-04 -2.6037450847297500e-06  6.7010324191912658e-06 -5.6007401722828513e-04 -2.5959648504980892e-06  6.8104643127534887e-06 -5.6927804512627695e-04 -2.5861610514592885e-06  6.9203273531654739e-06 -5.7847226927345175e-04 -2.5791033107600274e-06  7.0280944286466726e-06 -5.8764517368211386e-04 -2.5745193400444061e-06  7.1379149810811846e-06 -5.9681269053080675e-04 -2.5714078404634381e-06  7.2477033361947713e-06 -6.0595450201796823e-04 -2.5665533752324649e-06  7.3575938582008265e-06 -6.1508044815813002e-04 -2.5624827326586436e-06  7.4659337665939927e-06 -6.2420479803703495e-04 -2.5582302269482416e-06  7.5746991560971178e-06 -6.3332181635554485e-04 -2.5544119920696828e-06  7.6834884558614591e-06 -6.4243083936378772e-04 -2.5504163783661191e-06  7.7901250845371782e-06 -6.5153111674271142e-04 -2.5487364920007421e-06  7.8967899721153701e-06 -6.6063000654314682e-04 -2.5454571168956712e-06  8.0045752350908769e-06 -6.6971297538840171e-04 -2.5429304348564773e-06  8.1134816685296449e-06 -6.7878676629607023e-04 -2.5404999629280450e-06  8.2213405576996467e-06 -6.8785882772440634e-04 -2.5395689004615623e-06  8.3285571245866890e-06 -6.9692976497941824e-04 -2.5389769829207772e-06  8.4368347978380139e-06 -7.0599506014367330e-04 -2.5374428702845094e-06  8.5446311144643590e-06 -7.1505895122675055e-04 -2.5368546560871826e-06  8.6518676805857442e-06 -7.2412384458100010e-04 -2.5363409758227124e-06  8.7591380812795193e-06 -7.3318902217892263e-04 -2.5361594397213556e-06  8.8664612187469046e-06 -7.4225359763585574e-04 -2.5362613250851319e-06  8.9736711379525470e-06 -7.5131961610950886e-04 -2.5363293866019353e-06  9.0812508611659432e-06 -7.6038601191117880e-04 -2.5368342152476705e-06  9.1887142050686558e-06 -7.6945231349739406e-04 -2.5369766324261888e-06  9.2959291716998477e-06 -7.7852099965619234e-04 -2.5368024629298726e-06  9.2905423202568047e-06 -7.8172188319474128e-04 -5.2694928144265917e-06  9.2389720918782966e-06 -7.8188656969659087e-04 -8.0858852688572061e-06  9.2090485786992190e-06 -7.8205696544600693e-04 -9.7550066772905740e-06  9.1866446525718379e-06 -7.8222883155804697e-04 -1.1026735984441869e-05  9.1691195318121265e-06 -7.8240157616608799e-04 -1.2032013405637809e-05  9.1547677906076397e-06 -7.8257495142326761e-04 -1.2856703054547265e-05  9.1427108638599975e-06 -7.8274894682263309e-04 -1.3558056833456760e-05  9.1333702930012064e-06 -7.8292362652174078e-04 -1.4104867004092327e-05  9.1262424831766572e-06 -7.8309878790819147e-04 -1.4539364713208608e-05  9.1206787280793472e-06 -7.8327446431666913e-04 -1.4876318169527032e-05  9.1168421767447057e-06 -7.8345071687917136e-04 -1.5122846515321727e-05  9.1143185610080977e-06 -7.8362737213950016e-04 -1.5300740169380806e-05  9.1133847009351013e-06 -7.8380449816570490e-04 -1.539600