<?xml version="1.0"?>
<VTKFile type="UnstructuredGrid"  version="0.1"  >
<UnstructuredGrid>
<Piece  NumberOfPoints="10958" NumberOfCells="41820">
<Points>
<DataArray  type="Float64"  NumberOfComponents="3"  format="ascii">1 0.04955 0  3.483770450905253e-06 0.04864772283650545 0  3.483770450905253e-06 0.04864772283650545 2.95  1 0.04955 2.95  0.9705745651584323 0.0546328692740541 0  0.9410403409854562 0.05904933268918263 0  0.9114506936029688 0.06307764259166145 0  0.8818365365778597 0.06692205633990718 0  0.852195425756178 0.07055529100758898 0  0.8225213484314672 0.07390813590379837 0  0.7928382076274137 0.07717791230068967 0  0.7631311412584285 0.08022519712851128 0  0.7333970986343074 0.08299595685799818 0  0.7036468593402103 0.08558339900696151 0  0.6738808305098906 0.08798485813956464 0  0.6440919092681797 0.09008334865923617 0  0.6142870835549664 0.09194561288677774 0  0.5844675933514397 0.09355367701932085 0  0.5546335832429207 0.09486496269114339 0  0.5247876530181904 0.095868659884793 0  0.4949363523436856 0.09668736484019783 0  0.4650802095563029 0.09731740696399105 0  0.4352195800941197 0.09768943189876603 0  0.405357042743103 0.09780828360274334 0  0.3754942534896675 0.09784351677757946 0  0.3456322298379585 0.09760772238205492 0  0.3157719755355017 0.09723970101506153 0  0.2859142869264596 0.09668561931752166 0  0.2560638915081948 0.09582390318294828 0  0.2262236143831659 0.09466390431188013 0  0.1964020995566796 0.09309886371899376 0  0.1665963941161298 0.09125714074218327 0  0.1368197180220126 0.08899319787719009 0  0.1070946678970156 0.08612945256268216 0  0.07746305623222323 0.08244010579101241 0  0.04805012948181673 0.07731042839253653 0  0.01932358256457366 0.06928107812002522 0  3.483770450905253e-06 0.04864772283650545 0.02979797979797999  3.483770450905253e-06 0.04864772283650545 0.05959595959595966  3.483770450905253e-06 0.04864772283650545 0.08939393939393965  3.483770450905253e-06 0.04864772283650545 0.1191919191919193  3.483770450905253e-06 0.04864772283650545 0.1489898989898993  3.483770450905253e-06 0.04864772283650545 0.178787878787879  3.483770450905253e-06 0.04864772283650545 0.2085858585858589  3.483770450905253e-06 0.04864772283650545 0.2383838383838386  3.483770450905253e-06 0.04864772283650545 0.2681818181818186  3.483770450905253e-06 0.04864772283650545 0.2979797979797986  3.483770450905253e-06 0.04864772283650545 0.3277777777777782  3.483770450905253e-06 0.04864772283650545 0.3575757575757582  3.483770450905253e-06 0.04864772283650545 0.3873737373737379  3.483770450905253e-06 0.04864772283650545 0.4171717171717179  3.483770450905253e-06 0.04864772283650545 0.4469696969696979  3.483770450905253e-06 0.04864772283650545 0.4767676767676775  3.483770450905253e-06 0.04864772283650545 0.5065656565656572  3.483770450905253e-06 0.04864772283650545 0.5363636363636372  3.483770450905253e-06 0.04864772283650545 0.5661616161616169  3.483770450905254e-06 0.04864772283650545 0.5959595959595969  3.483770450905253e-06 0.04864772283650545 0.6257575757575765  3.483770450905254e-06 0.04864772283650545 0.6555555555555564  3.483770450905253e-06 0.04864772283650545 0.6853535353535362  3.483770450905253e-06 0.04864772283650545 0.7151515151515158  3.483770450905253e-06 0.04864772283650545 0.7449494949494958  3.483770450905253e-06 0.04864772283650545 0.7747474747474755  3.483770450905253e-06 0.04864772283650545 0.8045454545454552  3.483770450905253e-06 0.04864772283650545 0.8343434343434351  3.483770450905253e-06 0.04864772283650545 0.8641414141414151  3.483770450905253e-06 0.04864772283650545 0.8939393939393945  3.483770450905254e-06 0.04864772283650545 0.9237373737373745  3.483770450905253e-06 0.04864772283650545 0.9535353535353545  3.483770450905254e-06 0.04864772283650545 0.9833333333333341  3.483770450905253e-06 0.04864772283650545 1.013131313131314  3.483770450905254e-06 0.04864772283650545 1.042929292929294  3.483770450905253e-06 0.04864772283650545 1.072727272727274  3.483770450905254e-06 0.04864772283650545 1.102525252525254  3.483770450905253e-06 0.04864772283650545 1.132323232323234  3.483770450905254e-06 0.04864772283650545 1.162121212121214  3.483770450905253e-06 0.04864772283650545 1.191919191919194  3.483770450905254e-06 0.04864772283650545 1.221717171717174  3.483770450905253e-06 0.04864772283650545 1.251515151515153  3.483770450905254e-06 0.04864772283650545 1.281313131313133  3.483770450905253e-06 0.04864772283650545 1.311111111111113  3.483770450905253e-06 0.04864772283650545 1.340909090909093  3.483770450905253e-06 0.04864772283650545 1.370707070707073  3.483770450905253e-06 0.04864772283650545 1.400505050505053  3.483770450905253e-06 0.04864772283650545 1.430303030303033  3.483770450905253e-06 0.04864772283650545 1.460101010101013  3.483770450905253e-06 0.04864772283650545 1.489898989898993  3.483770450905253e-06 0.04864772283650545 1.519696969696973  3.483770450905253e-06 0.04864772283650545 1.549494949494953  3.483770450905253e-06 0.04864772283650545 1.579292929292933  3.483770450905253e-06 0.04864772283650545 1.609090909090913  3.483770450905253e-06 0.04864772283650545 1.638888888888893  3.483770450905254e-06 0.04864772283650545 1.668686868686872  3.483770450905253e-06 0.04864772283650545 1.698484848484852  3.483770450905254e-06 0.04864772283650545 1.728282828282832  3.483770450905253e-06 0.04864772283650545 1.758080808080812  3.483770450905254e-06 0.04864772283650545 1.787878787878792  3.483770450905253e-06 0.04864772283650545 1.817676767676772  3.483770450905254e-06 0.04864772283650545 1.847474747474752  3.483770450905253e-06 0.04864772283650545 1.877272727272732  3.483770450905254e-06 0.04864772283650545 1.907070707070712  3.483770450905253e-06 0.04864772283650545 1.936868686868691  3.483770450905253e-06 0.04864772283650545 1.966666666666671  3.483770450905253e-06 0.04864772283650545 1.996464646464651  3.483770450905253e-06 0.04864772283650545 2.02626262626263  3.483770450905253e-06 0.04864772283650545 2.056060606060611  3.483770450905253e-06 0.04864772283650545 2.08585858585859  3.483770450905254e-06 0.04864772283650545 2.11565656565657  3.483770450905253e-06 0.04864772283650545 2.14545454545455  3.483770450905253e-06 0.04864772283650545 2.175252525252529  3.483770450905253e-06 0.04864772283650545 2.205050505050508  3.483770450905253e-06 0.04864772283650545 2.234848484848488  3.483770450905253e-06 0.04864772283650545 2.264646464646468  3.483770450905253e-06 0.04864772283650545 2.294444444444448  3.483770450905253e-06 0.04864772283650545 2.324242424242427  3.483770450905253e-06 0.04864772283650545 2.354040404040407  3.483770450905253e-06 0.04864772283650545 2.383838383838387  3.483770450905254e-06 0.04864772283650545 2.413636363636366  3.483770450905253e-06 0.04864772283650545 2.443434343434346  3.483770450905253e-06 0.04864772283650545 2.473232323232326  3.483770450905253e-06 0.04864772283650545 2.503030303030305  3.483770450905253e-06 0.04864772283650545 2.532828282828285  3.483770450905253e-06 0.04864772283650545 2.562626262626264  3.483770450905253e-06 0.04864772283650545 2.592424242424244  3.483770450905254e-06 0.04864772283650545 2.622222222222224  3.483770450905253e-06 0.04864772283650545 2.652020202020203  3.483770450905253e-06 0.04864772283650545 2.681818181818183  3.483770450905253e-06 0.04864772283650545 2.711616161616163  3.483770450905253e-06 0.04864772283650545 2.741414141414142  3.483770450905254e-06 0.04864772283650545 2.771212121212122  3.483770450905253e-06 0.04864772283650545 2.801010101010102  3.483770450905253e-06 0.04864772283650545 2.830808080808081  3.483770450905253e-06 0.04864772283650545 2.860606060606061  3.483770450905253e-06 0.04864772283650545 2.890404040404041  3.483770450905253e-06 0.04864772283650545 2.92020202020202  0.9705745651584323 0.0546328692740541 2.95  0.9410403409854562 0.05904933268918263 2.95  0.9114506936029688 0.06307764259166145 2.95  0.8818365365778597 0.06692205633990718 2.95  0.852195425756178 0.07055529100758898 2.95  0.8225213484314672 0.07390813590379837 2.95  0.7928382076274137 0.07717791230068967 2.95  0.7631311412584285 0.08022519712851128 2.95  0.7333970986343074 0.08299595685799818 2.95  0.7036468593402103 0.08558339900696151 2.95  0.6738808305098906 0.08798485813956464 2.95  0.6440919092681797 0.09008334865923617 2.95  0.6142870835549664 0.09194561288677774 2.95  0.5844675933514397 0.09355367701932085 2.95  0.5546335832429207 0.09486496269114339 2.95  0.5247876530181904 0.095868659884793 2.95  0.4949363523436856 0.09668736484019783 2.95  0.4650802095563029 0.09731740696399105 2.95  0.4352195800941197 0.09768943189876603 2.95  0.405357042743103 0.09780828360274334 2.95  0.3754942534896675 0.09784351677757946 2.95  0.3456322298379585 0.09760772238205492 2.95  0.3157719755355017 0.09723970101506153 2.95  0.2859142869264596 0.09668561931752166 2.95  0.2560638915081948 0.09582390318294828 2.95  0.2262236143831659 0.09466390431188013 2.95  0.1964020995566796 0.09309886371899376 2.95  0.1665963941161298 0.09125714074218327 2.95  0.1368197180220126 0.08899319787719009 2.95  0.1070946678970156 0.08612945256268216 2.95  0.07746305623222323 0.08244010579101241 2.95  0.04805012948181673 0.07731042839253653 2.95  0.01932358256457366 0.06928107812002522 2.95  1 0.04955 0.02979797979797999  1 0.04955 0.05959595959595966  1 0.04955 0.08939393939393965  1 0.04955 0.1191919191919193  1 0.04955 0.1489898989898993  1 0.04955 0.178787878787879  1 0.04955 0.2085858585858589  1 0.04955 0.2383838383838386  1 0.04955 0.2681818181818186  1 0.04955 0.2979797979797986  1 0.04955 0.3277777777777782  1 0.04955 0.3575757575757582  1 0.04955 0.3873737373737379  1 0.04955 0.4171717171717179  1 0.04955 0.4469696969696979  1 0.04955 0.4767676767676775  1 0.04955 0.5065656565656572  1 0.04955 0.5363636363636372  1 0.04955 0.5661616161616169  1 0.04955 0.5959595959595969  1 0.04955 0.6257575757575765  1 0.04955 0.6555555555555564  1 0.04955 0.6853535353535362  1 0.04955 0.7151515151515158  1 0.04955 0.7449494949494958  1 0.04955 0.7747474747474755 
[...]
<PointData  Vectors="Displacement"> 
<DataArray  type="Float64"  Name="Displacement"  NumberOfComponents="3" format="ascii">0.0000000000000000e+00 0.0000000000000000e+00 0.0000000000000000e+00  0.0000000000000000e+00 0.0000000000000000e+00 0.0000000000000000e+00  9.2467828547152702e-05 -7.0135984822904326e-03 1.0098392560968972e-05  9.2590860995412871e-05 -7.0426071465090100e-03 -2.9725596213705889e-05  0.0000000000000000e+00 0.0000000000000000e+00 0.0000000000000000e+00  0.0000000000000000e+00 0.0000000000000000e+00 0.0000000000000000e+00  0.0000000000000000e+00 0.0000000000000000e+00 0.0000000000000000e+00  0.0000000000000000e+00 0.0000000000000000e+00 0.0000000000000000e+00  0.0000000000000000e+00 0.0000000000000000e+00 0.0000000000000000e+00  0.0000000000000000e+00 0.0000000000000000e+00 0.0000000000000000e+00  0.0000000000000000e+00 0.0000000000000000e+00 0.0000000000000000e+00  0.0000000000000000e+00 0.0000000000000000e+00 0.0000000000000000e+00  0.0000000000000000e+00 0.0000000000000000e+00 0.0000000000000000e+00  0.0000000000000000e+00 0.0000000000000000e+00 0.0000000000000000e+00  0.0000000000000000e+00 0.0000000000000000e+00 0.0000000000000000e+00  0.0000000000000000e+00 0.0000000000000000e+00 0.0000000000000000e+00  0.0000000000000000e+00 0.0000000000000000e+00 0.0000000000000000e+00  0.0000000000000000e+00 0.0000000000000000e+00 0.0000000000000000e+00  0.0000000000000000e+00 0.0000000000000000e+00 0.0000000000000000e+00  0.0000000000000000e+00 0.0000000000000000e+00 0.0000000000000000e+00  0.0000000000000000e+00 0.0000000000000000e+00 0.0000000000000000e+00  0.0000000000000000e+00 0.0000000000000000e+00 0.0000000000000000e+00  0.0000000000000000e+00 0.0000000000000000e+00 0.0000000000000000e+00  0.0000000000000000e+00 0.0000000000000000e+00 0.0000000000000000e+00  0.0000000000000000e+00 0.0000000000000000e+00 0.0000000000000000e+00  0.0000000000000000e+00 0.0000000000000000e+00 0.0000000000000000e+00  0.0000000000000000e+00 0.0000000000000000e+00 0.0000000000000000e+00  0.0000000000000000e+00 0.0000000000000000e+00 0.0000000000000000e+00  0.0000000000000000e+00 0.0000000000000000e+00 0.0000000000000000e+00  0.0000000000000000e+00 0.0000000000000000e+00 0.0000000000000000e+00  0.0000000000000000e+00 0.0000000000000000e+00 0.0000000000000000e+00  0.0000000000000000e+00 0.0000000000000000e+00 0.0000000000000000e+00  0.0000000000000000e+00 0.0000000000000000e+00 0.0000000000000000e+00  0.0000000000000000e+00 0.0000000000000000e+00 0.0000000000000000e+00  0.0000000000000000e+00 0.0000000000000000e+00 0.0000000000000000e+00  0.0000000000000000e+00 0.0000000000000000e+00 0.0000000000000000e+00  0.0000000000000000e+00 0.0000000000000000e+00 0.0000000000000000e+00  -5.8939030312917375e-08 1.3363480892653920e-06 1.6847215758360299e-07  1.5421636607162440e-07 7.3663717322538363e-07 7.0278846022663471e-07  3.9312937982221430e-07 -1.8847800920726502e-06 1.3160099085039339e-06  6.5597130788202562e-07 -7.1027340988010903e-06 1.5018893256267524e-06  6.3043874989641993e-07 -1.4875238109022903e-05 1.7359399541109529e-06  9.6535469222563250e-07 -2.5447180078684768e-05 1.9037564399298352e-06  1.1261918037375630e-06 -3.9055656973181543e-05 1.9480570449996137e-06  1.2769350704256232e-06 -5.4891504291842768e-05 2.5094897185693891e-06  1.6243113916234073e-06 -7.3360084414213184e-05 2.7309315030426930e-06  1.7907456663260381e-06 -9.4684400469435272e-05 2.9091245720519308e-06  2.2762036835968921e-06 -1.1829990997230508e-04 3.1813569574231893e-06  2.7903876753271934e-06 -1.4435609356759131e-04 3.2575060366598971e-06  2.9676871998917794e-06 -1.7314570921814364e-04 3.5225064356692029e-06  3.4448580402835418e-06 -2.0395870539755375e-04 3.1570090610344871e-06  3.6804638342365116e-06 -2.3707004790432244e-04 3.7366051444405105e-06  4.3180814537694733e-06 -2.7264594754955826e-04 3.6724296701917907e-06  4.7660185833002774e-06 -3.0974734571183896e-04 3.9554724815457222e-06  5.0938224168047790e-06 -3.4999466109888328e-04 4.2284383702906146e-06  5.8524291022775091e-06 -3.9211021061601116e-04 4.5295903214165223e-06  6.3546686512280554e-06 -4.3610031980644627e-04 4.2068113559354572e-06  6.9204383085197804e-06 -4.8155187764182178e-04 4.8466900345984683e-06  7.4670162089087522e-06 -5.2884395821942718e-04 5.4401030405800005e-06  8.4960604412266370e-06 -5.7811886599702786e-04 5.4824510389978845e-06  8.9015592390636627e-06 -6.2896283655078389e-04 5.6040890550375905e-06  9.8443518055669773e-06 -6.8139562533013783e-04 5.7372367755843341e-06  1.0660959842324619e-05 -7.3547968368182950e-04 5.4352019497975648e-06  1.1103649076468431e-05 -7.9176547581581074e-04 5.3931635607091760e-06  1.1694001849993059e-05 -8.4942995987960003e-04 5.8755412573360823e-06  1.2486815394112304e-05 -9.0907410255574054e-04 6.1881296142092215e-06  1.3397112798782658e-05 -9.7003804816490598e-04 6.4308807784925785e-06  1.4147502295375712e-05 -1.0322490937304842e-03 6.6343270600713918e-06  1.5023693723652767e-05 -1.0958716857542017e-03 6.8177404321816285e-06  1.5960372872373666e-05 -1.1610641539070096e-03 6.8755369557917996e-06  1.6856179187979114e-05 -1.2277300561295335e-03 6.6830903790385836e-06  1.7542644876113761e-05 -1.2952539670344015e-03 6.8017701999309331e-06  1.8344070632224708e-05 -1.3641876366587184e-03 7.2614955199494378e-06  1.9473851412104151e-05 -1.4344657799155917e-03 7.3744707101538323e-06  2.0425554085279759e-05 -1.5059798271977588e-03 7.3861471560800241e-06  2.1368327827975303e-05 -1.5786636069868940e-03 7.2376490245934016e-06  2.2162403177032428e-05 -1.6520747278454778e-03 7.5166782429305335e-06  2.3150123476226639e-05 -1.7266736942965759e-03 7.7320217736378632e-06  2.4233798304979254e-05 -1.8027493516986216e-03 7.9551136393504246e-06  2.5097701915354453e-05 -1.8798209264945423e-03 8.1171551945260776e-06  2.6275741165254162e-05 -1.9578675860582187e-03 8.1994604336549199e-06  2.7333555555992815e-05 -2.0369459965784800e-03 8.2267929093607998e-06  2.8326199065678596e-05 -2.1169533110606824e-03 8.2441041397669149e-06  2.9410165551686148e-05 -2.1976886942732215e-03 8.0837326188228889e-06  3.0424761704399674e-05 -2.2793236752822084e-03 8.2737360320717237e-06  3.1428264193612115e-05 -2.3616641695760067e-03 8.3655219597131462e-06  3.2570381732990034e-05 -2.4449061064282761e-03 8.5064973533651379e-06  3.3630689353277750e-05 -2.5290897167897027e-03 8.7794411259630385e-06  3.4764081716745886e-05 -2.6139016823529372e-03 8.8940451545553267e-06  3.5982423746811364e-05 -2.6995107845198788e-03 8.7370448147233734e-06  3.6976656897173375e-05 -2.7856422162294385e-03 8.8147507724736994e-06  3.8202606694977342e-05 -2.8725110783160610e-03 8.8326531870830413e-06  3.9257610088476788e-05 -2.9600136815806249e-03 8.9130356906592573e-06  4.0394342654174518e-05 -3.0479776369551083e-03 9.0253246572024982e-06  4.1512218609432326e-05 -3.1365614065502669e-03 9.2689607127460085e-06  4.2770931218347590e-05 -3.2256695387034612e-03 9.3330034621133342e-06  4.3977670576617769e-05 -3.3152414093510578e-03 9.2185590857658328e-06  4.5056859927106157e-05 -3.4053295531511988e-03 9.2676080690342501e-06  4.6197474093750415e-05 -3.4959833336857429e-03 9.5055920933855780e-06  4.7512056918502336e-05 -3.5871285171079053e-03 9.5065340995647648e-06  4.8734474497419978e-05 -3.6787219852912022e-03 9.4437424976715118e-06  4.9881231361640274e-05 -3.7707087971155582e-03 9.4596498527132306e-06  5.1071863957051021e-05 -3.8630181897673288e-03 9.6220052754969112e-06  5.2258485254831949e-05 -3.9557115954024303e-03 9.7135242538995118e-06  5.3546630861880475e-05 -4.0486575863031005e-03 9.7292655263360407e-06  5.4722703810024972e-05 -4.1419941117394566e-03 9.7726389594798431e-06  5.6009089695342210e-05 -4.2356186893446031e-03 9.7904871880777079e-06  5.7257204042802813e-05 -4.3295409541146464e-03 9.7276972300889448e-06  5.8448647431061731e-05 -4.4237891683538717e-03 9.7479400168793826e-06  5.9669427475608745e-05 -4.5182263786902200e-03 9.8663893040042388e-06  6.0893453533731432e-05 -4.6128789758422819e-03 9.8995008638888934e-06  6.2167140777945524e-05 -4.7077883084136107e-03 9.9348504777797355e-06  6.3414370245467937e-05 -4.8028519075562753e-03 9.9316361101639227e-06  6.4660551774499430e-05 -4.8980851209703509e-03 9.9489025616971217e-06  6.5933527049052818e-05 -4.9934953705835557e-03 9.9307331447504835e-06  6.7181681592973908e-05 -5.0890515572219047e-03 9.9509799435314292e-06  6.8423047408004733e-05 -5.1847490920264947e-03 9.9868070872965198e-06  6.9666576515084892e-05 -5.2805301259744256e-03 1.0027772153301150e-05  7.0949006850443282e-05 -5.3764420466627843e-03 1.0044019758142776e-05  7.2197411370554700e-05 -5.4724268559569545e-03 1.0047521936641697e-05  7.3469259455636430e-05 -5.5684962595307155e-03 1.0054702520991944e-05  7.4736111608372349e-05 -5.6646313129166837e-03 1.0053181277739259e-05  7.6006847923215383e-05 -5.7608343458502905e-03 1.0050108911841980e-05  7.7264972483818419e-05 -5.8570847271657818e-03 1.0068189219847116e-05  7.8522300193356140e-05 -5.9533808629072711e-03 1.0081905833120342e-05  7.9796079629271540e-05 -6.0497132101201148e-03 1.0084668564410788e-05  8.1067888357192795e-05 -6.1460649905824560e-03 1.0082723472309914e-05  8.2335542357948784e-05 -6.2424392863620615e-03 1.0088307742826240e-05  8.3596844166013897e-05 -6.3388250437431742e-03 1.0096081823151769e-05  8.4863815861064190e-05 -6.4352222242381393e-03 1.0098168435776825e-05  8.6133520482554703e-05 -6.5316252024840522e-03 1.0098742602944325e-05  8.7402057204819252e-05 -6.6280254880891343e-03 1.0099000135439575e-05  8.8667727362432190e-05 -6.7244243992780877e-03 1.0097931691067573e-05  8.9936309131312834e-05 -6.8208204890717718e-03 1.0098212588828433e-05  9.1202275472825322e-05 -6.9172120333249355e-03 1.0098274082869699e-05  9.2718434989575273e-05 -7.0418628324585841e-03 -1.1998766778544624e-05  9.2833196971917466e-05 -7.0410977337373275e-03 3.5709450424283065e-06  9.2942631922541386e-05 -7.0403078226374972e-03 1.7884520265218744e-05  9.3047464823987764e-05 -7.0395007895144614e-03 3.1603014780803726e-05  9.3145373547101173e-05 -7.0386892824374128e-03 4.4636367525298881e-05  9.3234779356916035e-05 -7.0378808724582582e-03 5.6764395642733386e-05  9.3322042933294166e-05 -7.0370706071266028e-03 6.8620764679463877e-05  9.3404986047288405e-05 -7.0362597719828140e-03 7.9755921177474291e-05  9.3479089003587192e-05 -7.0354472071907266e-03 8.9997006410902637e-05  9.3551674205924799e-05 -7.0346332639497512e-03 9.9638295454755602e-05  9.3617107362223517e-05 -7.0338091030329262e-03 1.0867963443206119e-04  9.3677385503953796e-05 -7.0329795006997065e-03 1.1673562513210279e-04  9.3730172186135683e-05 -7.0321420541956626e-03 1.2403094247373335e-04  9.3778603685134009e-05 -7.0313065849437984e-03 1.3050055499430914e-04  9.3817889718827963e-05 -7.0304608329231503e-03 1.3601305831695363e-04  9.3853241974897663e-05 -7.0296116618675814e-03 1.4052620087984997e-04  9.3881688574464677e-05 -7.0287541584873933e-03 1.4444115694610293e-04  9.3906300423907843e-05 -7.0278895116376739e-03 1.4774633069903102e-04  9.3925523599012109e-05 -7.0270165105663857e-03 1.5021495971278810e-04  9.3937187321873011e-05 -7.0261378947068711e-03 1.5186576579029039e-04  9.3945716118351151e-05 -7.0252547821033238e-03 1.5324825493318844e-04  9.3947018570863787e-05 -7.0243638875083590e-03 1.5375445433977010e-04  9.3945360400240300e-05 -7.0234649022413121e-03 1.5383191649779942e-04  9.3939560653812313e-05 -7.0225587058121578e-03 1.5330864414562860e-04  9.3922540126203339e-05 -7.0216475120439903e-03 1.5179181010238572e-04  9.3895420275257570e-05 -7.0207294650573362e-03 1.4930978193939930e-04  9.3855548263780609e-05 -7.0198053920353760e-03 1.4551816686510775e-04  9.3806559754746694e-05 -7.0188755850317652e-03 1.4082992133498154e-04  9.3741554075538715e-05 -7.0179405293230492e-03 1.3477626450171461e-04  9.3655503321311777e-05 -7.0170018093251799e-03 1.2677931119026519e-04  9.3541240695835256e-05 -7.0160646950537479e-03 1.1610752092151253e-04  9.3381009185285676e-05 -7.0151293308041750e-03 1.0076861936142254e-04  9.3125942841326863e-05 -7.0142145436170233e-03 7.6018337035004563e-05  -3.1931210160031884e-07 7.7441550514568402e-07 -3.5113512216936800e-08  -5.8364510080032154e-07 3.3997360664309002e-07 -2.6655944511332636e-07  -6.7866946567810222e-07 -7.8470397610501112e-07 -8.7779607563558773e-07  -5.0319446561214292e-07 -5.6484727141332274e-06 -1.9315402874564921e-06  1.9374782920130567e-08 -1.1177806100029175e-05 -2.8989727274012941e-06  2.2963932097547102e-07 -1.7496513116718667e-05 -3.2044521413200983e-06  4.3142635052602693e-07 -3.0088655086794930e-05 -3.6531737179720502e-06  7.2058581689041738e-07 -4.3413269615051008e-05 -4.1621912677164344e-06  5.4887562310949101e-07 -5.8950117830134819e-05 -4.5954067018335598e-06  9.0468340009579098e-07 -7.6929379079178294e-05 -5.5128266934305495e-06  1.7584000060504378e-06 -9.8095622197726286e-05 -6.7310850899955088e-06  2.5920258413255566e-06 -1.2025476304885310e-04 -7.9758190842998083e-06  3.5537797360809932e-06 -1.4355338210105087e-04 -9.1612504016986140e-06  3.4634629287793734e-06 -1.7389750647553944e-04 -9.3152638100458925e-06  4.0972050856165672e-06 -2.0625628237114335e-04 -9.8614753514866607e-06  4.4431681158846418e-06 -2.3890208149244453e-04 -1.0709720746589454e-05  4.9676850158031518e-06 -2.7523669852036871e-04 -1.1473432742864731e-05  5.4233362648375035e-06 -3.1486862509959643e-04 -1.2710241533560918e-05  5.8838970153344107e-06 -3.5740589183308095e-04 -1.4058241875614223e-05  6.6347608147530495e-06 -4.0274797093940305e-04 -1.4384371751584907e-05  6.9258217835029578e-06 -4.4992674066882062e-04 -1.4673874920671375e-05  7.5109030598173950e-06 -4.9783141847182535e-04 -1.5209751897852287e-05  8.2194130295551871e-06 -5.4709187392433935e-04 -1.5591567308764219e-05  8.8065631236696006e-06 -5.9846461891405807e-04 -1.6216175019992170e-05  9.6213805998011461e-06 -6.5153285804067326e-04 -1.6942276303591529e-05  1.0201614763423940e-05 -7.0640279527767137e-04 -1.7002119337615311e-05  1.0948505118579336e-05 -7.6355806193984898e-04 -1.8150721723929068e-05  1.1574226335402815e-05 -8.2340175815486438e-04 -1.8661799767568116e-05  1.2350152080641253e-05 -8.8406267860888883e-04 -1.9223268275249358e-05  1.3434151385561819e-05 -9.4640021873766678e-04 -1.9896633165538734e-05  1.4329967965766004e-05 -1.0091184189099840e-03 -2.0226337762648372e-05  1.5116050043120303e-05 -1.0731392377778151e-03 -2.0298947694148706e-05  1.6038781555449063e-05 -1.1387858156559783e-03 -2.0877984367518138e-05  1.6829788057312746e-05 -1.2061275048750534e-03 -2.1390332176521502e-05  1.7606610552048938e-05 -1.2752779100021630e-03 -2.1401109170657348e-05  1.8592134896492106e-05 -1.3449578225243819e-03 -2.2075188944869097e-05  1.9647488310088830e-05 -1.4149971691745735e-03 -2.2148121839900774e-05  2.0684595547117522e-05 -1.4875546494112840e-03 -2.2544633696800424e-05  2.1548218147435328e-05 -1.5612706050033983e-03 -2.3086931032587003e-05  2.2585166260621459e-05 -1.6358912123967048e-03 -2.3505478646583336e-05  2.3498026654487005e-05 -1.7129475704799055e-03 -2.3987379632014646e-05  2.4467966628523669e-05 -1.7906764756978400e-03 -2.4241879765059038e-05  2.5484431102549247e-05 -1.8692298301450094e-03 -2.4618245202373248e-05  2.6510795485955982e-05 -1.9481576192900412e-03 -2.4718345630912270e-05  2.7556172807252383e-05 -2.0285704441302789e-03 -2.4833551994900307e-05  2.8609799499349381e-05 -2.1094569001071286e-03 -2.5136671729433610e-05  2.9548133759085590e-05 -2.1915597523472579e-03 -2.5344292568214650e-05  3.0621963740968930e-05 -2.2739822575254258e-03 -2.5518087052140512e-05  3.1612173827469937e-05 -2.3571741232117490e-03 -2.5891624232587628e-05  3.2847386580980788e-05 -2.4416178392489747e-03 -2.6154194735379119e-05  3.3933209102388699e-05 -2.5267428316993095e-03 -2.6355797536075315e-05  3.4972732330600346e-05 -2.6125706715213544e-03 -2.6720240028148113e-05  3.6081728077587900e-05 -2.6992036138886819e-03 -2.6976867415237799e-05  3.7218624533048407e-05 -2.7865495815598230e-03 -2.7005553076309587e-05  3.8304634241637411e-05 -2.8744555645500076e-03 -2.7266450921439188e-05  3.9456193484563444e-05 -2.9630903300089067e-03 -2.7470474795924934e-05  4.0684014908883148e-05 -3.0518908309147504e-03 -2.7621461312729385e-05  4.1788602543278544e-05 -3.1419098540382134e-03 -2.7787883858864411e-05  4.2877755986072960e-05 -3.2327154544878247e-03 -2.7930626938146199e-05  4.3992056283883704e-05 -3.3238548568461112e-03 -2.8153805384648024e-05  4.5152588098001515e-05 -3.4152375529286540e-03 -2.8287866481088047e-05  4.6363589895783394e-05 -3.5070213236643088e-03 -2.8406857275875764e-05  4.7610814323138075e-05 -3.5988288164401465e-03 -2.8527952019236586e-05  4.8822589871162428e-05 -3.6909995854232285e-03 -2.8573978273682848e-05  5.0050497357316962e-05 -3.7833876356807000e-03 -2.8712437394880740e-05  5.1235281866634437e-05 -3.8765949288037029e-03 -2.8782904792057930e-05  5.2471073774952570e-05 -3.9698790498546958e-03 -2.8859888481486943e-05  5.3692829888403922e-05 -4.0635765642965220e-03 -2.8961506472102602e-05  5.4888554347007209e-05 -4.1577832556531557e-03 -2.9074173152599836e-05  5.6134261196392011e-05 -4.2522579349444350e-03 -2.9145719065507810e-05  5.7288188379229070e-05 -4.3471386355121797e-03 -2.9274735232267929e-05  5.8561543651130445e-05 -4.4419903457638653e-03 -2.9330480574640977e-05  5.9796449045913058e-05 -4.5371862666754902e-03 -2.9369964626579361e-05  6.1035171216197511e-05 -4.6324326169818021e-03 -2.9436435401948688e-05  6.2254123021224247e-05 -4.7280762040083262e-03 -2.9516840136648401e-05  6.3488161721070793e-05 -4.8237772482268172e-03 -2.9575423517505900e-05  6.4746238591939940e-05 -4.9196783813686929e-03 -2.9590383623134479e-05  6.5985784984713732e-05 -5.0156443625954316e-03 -2.9606888150919404e-05  6.7231817251522431e-05 -5.1118254611369875e-03 -2.9642926964847964e-05  6.8479656970848402e-05 -5.2081102719202296e-03 -2.9668491149208887e-05  6.9738382128261124e-05 -5.3044059645788203e-03 -2.9688865093036470e-05  7.0991716927654204e-05 -5.4007929814680212e-03 -2.9717739192911979e-05  7.2250764833779637e-05 -5.4972043243188143e-03 -2.9743067828276646e-05  7.3529478847996459e-05 -5.5936997638154646e-03 -2.9738167943456463e-05  7.4803894736810367e-05 -5.6902285038197796e-03 -2.9744620716077230e-05  7.6057723673635306e-05 -5.7868431287049476e-03 -2.9748538757438097e-05  7.7315699608644807e-05 -5.8834906715184805e-03 -2.9759525863492942e-05  7.8583833429616176e-05 -5.9801244660486579e-03 -2.9759771262901520e-05  7.9859568609819882e-05 -6.0767617824703654e-03 -2.9756542299923315e-05  8.1120858324321214e-05 -6.1734433375414070e-03 -2.9761332019492976e-05  8.2389912522689275e-05 -6.2700855229016793e-03 -2.9750585135913716e-05  8.3667428065505091e-05 -6.3666885562870344e-03 -2.9750679288765372e-05  8.4942062135549284e-05 -6.4632837605431001e-03 -2.9747061208050396e-05  8.6215212066206311e-05 -6.5598793926200660e-03 -2.9739460483712926e-05  8.7491068090613761e-05 -6.6564467139020754e-03 -2.9734988711000316e-05  8.8761066568805155e-05 -6.7530054492420579e-03 -2.9725672737099613e-05  9.0033547088130044e-05 -6.8495654701560766e-03 -2.9722627493344087e-05  9.1310095788524890e-05 -6.9460891508977361e-03 -2.9724683431969829e-05  9.1841176488732757e-05 -7.0142641801632160e-03 -5.4336266791538713e-05  9.1558337668237738e-05 -7.0151711768950773e-03 -8.4340499715065723e-05  9.1398351770016837e-05 -7.0161055202880357e-03 -1.0216747421108202e-04  9.1280733619674131e-05 -7.0170430814577500e-03 -1.1577450035944412e-04  9.1193403680388886e-05 -7.0179799123177549e-03 -1.2655725259257025e-04  9.1128729391408341e-05 -7.0189139700753585e-03 -1.3541799018917548e-04  9.1077824149969998e-05 -7.0198429715035227e-03 -1.4296942189280081e-04  9.1045987958633638e-05 -7.0207657292735825e-03 -1.4888553790858228e-04  9.1025066919914641e-05 -7.0216835501150827e-03 -1.5361158118315626e-04  9.1018285214418233e-05 -7.0225950589324253e-03 -1.5730278833492084e-04  9.1020914385171319e-05 -7.0234990067429498e-03 -1.6003558650865460e-04  9.1030422880852379e-05 -7.0243973161761685e-03 -1.6204906131886163e-04  9.1048333864070775e-05 -7.0252887335115026e-03 -1.6318511612