<?xml version="1.0"?>
<VTKFile type="UnstructuredGrid"  version="0.1"  >
<UnstructuredGrid>
<Piece  NumberOfPoints="10958" NumberOfCells="41820">
<Points>
<DataArray  type="Float64"  NumberOfComponents="3"  format="ascii">1 0.04955 0  3.483770450905253e-06 0.04864772283650545 0  3.483770450905253e-06 0.04864772283650545 2.95  1 0.04955 2.95  0.9705745651584323 0.0546328692740541 0  0.9410403409854562 0.05904933268918263 0  0.9114506936029688 0.06307764259166145 0  0.8818365365778597 0.06692205633990718 0  0.852195425756178 0.07055529100758898 0  0.8225213484314672 0.07390813590379837 0  0.7928382076274137 0.07717791230068967 0  0.7631311412584285 0.08022519712851128 0  0.7333970986343074 0.08299595685799818 0  0.7036468593402103 0.08558339900696151 0  0.6738808305098906 0.08798485813956464 0  0.6440919092681797 0.09008334865923617 0  0.6142870835549664 0.09194561288677774 0  0.5844675933514397 0.09355367701932085 0  0.5546335832429207 0.09486496269114339 0  0.5247876530181904 0.095868659884793 0  0.4949363523436856 0.09668736484019783 0  0.4650802095563029 0.09731740696399105 0  0.4352195800941197 0.09768943189876603 0  0.405357042743103 0.09780828360274334 0  0.3754942534896675 0.09784351677757946 0  0.3456322298379585 0.09760772238205492 0  0.3157719755355017 0.09723970101506153 0  0.2859142869264596 0.09668561931752166 0  0.2560638915081948 0.09582390318294828 0  0.2262236143831659 0.09466390431188013 0  0.1964020995566796 0.09309886371899376 0  0.1665963941161298 0.09125714074218327 0  0.1368197180220126 0.08899319787719009 0  0.1070946678970156 0.08612945256268216 0  0.07746305623222323 0.08244010579101241 0  0.04805012948181673 0.07731042839253653 0  0.01932358256457366 0.06928107812002522 0  3.483770450905253e-06 0.04864772283650545 0.02979797979797999  3.483770450905253e-06 0.04864772283650545 0.05959595959595966  3.483770450905253e-06 0.04864772283650545 0.08939393939393965  3.483770450905253e-06 0.04864772283650545 0.1191919191919193  3.483770450905253e-06 0.04864772283650545 0.1489898989898993  3.483770450905253e-06 0.04864772283650545 0.178787878787879  3.483770450905253e-06 0.04864772283650545 0.2085858585858589  3.483770450905253e-06 0.04864772283650545 0.2383838383838386  3.483770450905253e-06 0.04864772283650545 0.2681818181818186  3.483770450905253e-06 0.04864772283650545 0.2979797979797986  3.483770450905253e-06 0.04864772283650545 0.3277777777777782  3.483770450905253e-06 0.04864772283650545 0.3575757575757582  3.483770450905253e-06 0.04864772283650545 0.3873737373737379  3.483770450905253e-06 0.04864772283650545 0.4171717171717179  3.483770450905253e-06 0.04864772283650545 0.4469696969696979  3.483770450905253e-06 0.04864772283650545 0.4767676767676775  3.483770450905253e-06 0.04864772283650545 0.5065656565656572  3.483770450905253e-06 0.04864772283650545 0.5363636363636372  3.483770450905253e-06 0.04864772283650545 0.5661616161616169  3.483770450905254e-06 0.04864772283650545 0.5959595959595969  3.483770450905253e-06 0.04864772283650545 0.6257575757575765  3.483770450905254e-06 0.04864772283650545 0.6555555555555564  3.483770450905253e-06 0.04864772283650545 0.6853535353535362  3.483770450905253e-06 0.04864772283650545 0.7151515151515158  3.483770450905253e-06 0.04864772283650545 0.7449494949494958  3.483770450905253e-06 0.04864772283650545 0.7747474747474755  3.483770450905253e-06 0.04864772283650545 0.8045454545454552  3.483770450905253e-06 0.04864772283650545 0.8343434343434351  3.483770450905253e-06 0.04864772283650545 0.8641414141414151  3.483770450905253e-06 0.04864772283650545 0.8939393939393945  3.483770450905254e-06 0.04864772283650545 0.9237373737373745  3.483770450905253e-06 0.04864772283650545 0.9535353535353545  3.483770450905254e-06 0.04864772283650545 0.9833333333333341  3.483770450905253e-06 0.04864772283650545 1.013131313131314  3.483770450905254e-06 0.04864772283650545 1.042929292929294  3.483770450905253e-06 0.04864772283650545 1.072727272727274  3.483770450905254e-06 0.04864772283650545 1.102525252525254  3.483770450905253e-06 0.04864772283650545 1.132323232323234  3.483770450905254e-06 0.04864772283650545 1.162121212121214  3.483770450905253e-06 0.04864772283650545 1.191919191919194  3.483770450905254e-06 0.04864772283650545 1.221717171717174  3.483770450905253e-06 0.04864772283650545 1.251515151515153  3.483770450905254e-06 0.04864772283650545 1.281313131313133  3.483770450905253e-06 0.04864772283650545 1.311111111111113  3.483770450905253e-06 0.04864772283650545 1.340909090909093  3.483770450905253e-06 0.04864772283650545 1.370707070707073  3.483770450905253e-06 0.04864772283650545 1.400505050505053  3.483770450905253e-06 0.04864772283650545 1.430303030303033  3.483770450905253e-06 0.04864772283650545 1.460101010101013  3.483770450905253e-06 0.04864772283650545 1.489898989898993  3.483770450905253e-06 0.04864772283650545 1.519696969696973  3.483770450905253e-06 0.04864772283650545 1.549494949494953  3.483770450905253e-06 0.04864772283650545 1.579292929292933  3.483770450905253e-06 0.04864772283650545 1.609090909090913  3.483770450905253e-06 0.04864772283650545 1.638888888888893  3.483770450905254e-06 0.04864772283650545 1.668686868686872  3.483770450905253e-06 0.04864772283650545 1.698484848484852  3.483770450905254e-06 0.04864772283650545 1.728282828282832  3.483770450905253e-06 0.04864772283650545 1.758080808080812  3.483770450905254e-06 0.04864772283650545 1.787878787878792  3.483770450905253e-06 0.04864772283650545 1.817676767676772  3.483770450905254e-06 0.04864772283650545 1.847474747474752  3.483770450905253e-06 0.04864772283650545 1.877272727272732  3.483770450905254e-06 0.04864772283650545 1.907070707070712  3.483770450905253e-06 0.04864772283650545 1.936868686868691  3.483770450905253e-06 0.04864772283650545 1.966666666666671  3.483770450905253e-06 0.04864772283650545 1.996464646464651  3.483770450905253e-06 0.04864772283650545 2.02626262626263  3.483770450905253e-06 0.04864772283650545 2.056060606060611  3.483770450905253e-06 0.04864772283650545 2.08585858585859  3.483770450905254e-06 0.04864772283650545 2.11565656565657  3.483770450905253e-06 0.04864772283650545 2.14545454545455  3.483770450905253e-06 0.04864772283650545 2.175252525252529  3.483770450905253e-06 0.04864772283650545 2.205050505050508  3.483770450905253e-06 0.04864772283650545 2.234848484848488  3.483770450905253e-06 0.04864772283650545 2.264646464646468  3.483770450905253e-06 0.04864772283650545 2.294444444444448  3.483770450905253e-06 0.04864772283650545 2.324242424242427  3.483770450905253e-06 0.04864772283650545 2.354040404040407  3.483770450905253e-06 0.04864772283650545 2.383838383838387  3.483770450905254e-06 0.04864772283650545 2.413636363636366  3.483770450905253e-06 0.04864772283650545 2.443434343434346  3.483770450905253e-06 0.04864772283650545 2.473232323232326  3.483770450905253e-06 0.04864772283650545 2.503030303030305  3.483770450905253e-06 0.04864772283650545 2.532828282828285  3.483770450905253e-06 0.04864772283650545 2.562626262626264  3.483770450905253e-06 0.04864772283650545 2.592424242424244  3.483770450905254e-06 0.04864772283650545 2.622222222222224  3.483770450905253e-06 0.04864772283650545 2.652020202020203  3.483770450905253e-06 0.04864772283650545 2.681818181818183  3.483770450905253e-06 0.04864772283650545 2.711616161616163  3.483770450905253e-06 0.04864772283650545 2.741414141414142  3.483770450905254e-06 0.04864772283650545 2.771212121212122  3.483770450905253e-06 0.04864772283650545 2.801010101010102  3.483770450905253e-06 0.04864772283650545 2.830808080808081  3.483770450905253e-06 0.04864772283650545 2.860606060606061  3.483770450905253e-06 0.04864772283650545 2.890404040404041  3.483770450905253e-06 0.04864772283650545 2.92020202020202  0.9705745651584323 0.0546328692740541 2.95  0.9410403409854562 0.05904933268918263 2.95  0.9114506936029688 0.06307764259166145 2.95  0.8818365365778597 0.06692205633990718 2.95  0.852195425756178 0.07055529100758898 2.95  0.8225213484314672 0.07390813590379837 2.95  0.7928382076274137 0.07717791230068967 2.95  0.7631311412584285 0.08022519712851128 2.95  0.7333970986343074 0.08299595685799818 2.95  0.7036468593402103 0.08558339900696151 2.95  0.6738808305098906 0.08798485813956464 2.95  0.6440919092681797 0.09008334865923617 2.95  0.6142870835549664 0.09194561288677774 2.95  0.5844675933514397 0.09355367701932085 2.95  0.5546335832429207 0.09486496269114339 2.95  0.5247876530181904 0.095868659884793 2.95  0.4949363523436856 0.09668736484019783 2.95  0.4650802095563029 0.09731740696399105 2.95  0.4352195800941197 0.09768943189876603 2.95  0.405357042743103 0.09780828360274334 2.95  0.3754942534896675 0.09784351677757946 2.95  0.3456322298379585 0.09760772238205492 2.95  0.3157719755355017 0.09723970101506153 2.95  0.2859142869264596 0.09668561931752166 2.95  0.2560638915081948 0.09582390318294828 2.95  0.2262236143831659 0.09466390431188013 2.95  0.1964020995566796 0.09309886371899376 2.95  0.1665963941161298 0.09125714074218327 2.95  0.1368197180220126 0.08899319787719009 2.95  0.1070946678970156 0.08612945256268216 2.95  0.07746305623222323 0.08244010579101241 2.95  0.04805012948181673 0.07731042839253653 2.95  0.01932358256457366 0.06928107812002522 2.95  1 0.04955 0.02979797979797999  1 0.04955 0.05959595959595966  1 0.04955 0.08939393939393965  1 0.04955 0.1191919191919193  1 0.04955 0.1489898989898993  1 0.04955 0.178787878787879  1 0.04955 0.2085858585858589  1 0.04955 0.2383838383838386  1 0.04955 0.2681818181818186  1 0.04955 0.2979797979797986  1 0.04955 0.3277777777777782  1 0.04955 0.3575757575757582  1 0.04955 0.3873737373737379  1 0.04955 0.4171717171717179  1 0.04955 0.4469696969696979  1 0.04955 0.4767676767676775  1 0.04955 0.5065656565656572  1 0.04955 0.5363636363636372  1 0.04955 0.5661616161616169  1 0.04955 0.5959595959595969  1 0.04955 0.6257575757575765  1 0.04955 0.6555555555555564  1 0.04955 0.6853535353535362  1 0.04955 0.7151515151515158  1 0.04955 0.7449494949494958  1 0.04955 0.7747474747474755 
[...]
<PointData  Vectors="Displacement"> 
<DataArray  type="Float64"  Name="Displacement"  NumberOfComponents="3" format="ascii">0.0000000000000000e+00 0.0000000000000000e+00 0.0000000000000000e+00  0.0000000000000000e+00 0.0000000000000000e+00 0.0000000000000000e+00  2.9574994949249300e-06 -2.9793068314187311e-04 7.0937416840858946e-08  2.9465556993603293e-06 -3.0213381649980007e-04 -4.2653277777945677e-07  0.0000000000000000e+00 0.0000000000000000e+00 0.0000000000000000e+00  0.0000000000000000e+00 0.0000000000000000e+00 0.0000000000000000e+00  0.0000000000000000e+00 0.0000000000000000e+00 0.0000000000000000e+00  0.0000000000000000e+00 0.0000000000000000e+00 0.0000000000000000e+00  0.0000000000000000e+00 0.0000000000000000e+00 0.0000000000000000e+00  0.0000000000000000e+00 0.0000000000000000e+00 0.0000000000000000e+00  0.0000000000000000e+00 0.0000000000000000e+00 0.0000000000000000e+00  0.0000000000000000e+00 0.0000000000000000e+00 0.0000000000000000e+00  0.0000000000000000e+00 0.0000000000000000e+00 0.0000000000000000e+00  0.0000000000000000e+00 0.0000000000000000e+00 0.0000000000000000e+00  0.0000000000000000e+00 0.0000000000000000e+00 0.0000000000000000e+00  0.0000000000000000e+00 0.0000000000000000e+00 0.0000000000000000e+00  0.0000000000000000e+00 0.0000000000000000e+00 0.0000000000000000e+00  0.0000000000000000e+00 0.0000000000000000e+00 0.0000000000000000e+00  0.0000000000000000e+00 0.0000000000000000e+00 0.0000000000000000e+00  0.0000000000000000e+00 0.0000000000000000e+00 0.0000000000000000e+00  0.0000000000000000e+00 0.0000000000000000e+00 0.0000000000000000e+00  0.0000000000000000e+00 0.0000000000000000e+00 0.0000000000000000e+00  0.0000000000000000e+00 0.0000000000000000e+00 0.0000000000000000e+00  0.0000000000000000e+00 0.0000000000000000e+00 0.0000000000000000e+00  0.0000000000000000e+00 0.0000000000000000e+00 0.0000000000000000e+00  0.0000000000000000e+00 0.0000000000000000e+00 0.0000000000000000e+00  0.0000000000000000e+00 0.0000000000000000e+00 0.0000000000000000e+00  0.0000000000000000e+00 0.0000000000000000e+00 0.0000000000000000e+00  0.0000000000000000e+00 0.0000000000000000e+00 0.0000000000000000e+00  0.0000000000000000e+00 0.0000000000000000e+00 0.0000000000000000e+00  0.0000000000000000e+00 0.0000000000000000e+00 0.0000000000000000e+00  0.0000000000000000e+00 0.0000000000000000e+00 0.0000000000000000e+00  0.0000000000000000e+00 0.0000000000000000e+00 0.0000000000000000e+00  0.0000000000000000e+00 0.0000000000000000e+00 0.0000000000000000e+00  0.0000000000000000e+00 0.0000000000000000e+00 0.0000000000000000e+00  0.0000000000000000e+00 0.0000000000000000e+00 0.0000000000000000e+00  0.0000000000000000e+00 0.0000000000000000e+00 0.0000000000000000e+00  -1.2365479627739341e-08 8.1023812434194321e-08 5.2968220946611097e-09  9.2179474048991542e-09 -8.7479312243050247e-08 6.0568394643910466e-08  2.9509479023732279e-08 -4.8995475878250488e-07 1.2155688215396603e-07  5.9508244417103486e-08 -1.1812481660773445e-06 1.2874859182023556e-07  5.3593390783144310e-08 -2.1431375359593078e-06 1.4498065476725174e-07  8.4056883373748611e-08 -3.3910198224990353e-06 1.5168223189546673e-07  9.9316864033261764e-08 -4.9322295755903508e-06 1.4637750886875098e-07  1.0874384152544428e-07 -6.6807233703518847e-06 1.9276978603616602e-07  1.3958333171971828e-07 -8.6727695388706038e-06 2.0430271095285588e-07  1.5474249253379342e-07 -1.0910762061540947e-05 2.1188880405342613e-07  1.9334643950412145e-07 -1.3338958274499106e-05 2.2634932057661041e-07  2.3406254568104555e-07 -1.5959490712717826e-05 2.2495150969758974e-07  2.4906107342492113e-07 -1.8785387248108164e-05 2.4054733087027878e-07  2.8931831647066628e-07 -2.1755894358672229e-05 2.1206015860222033e-07  3.0571372023348616e-07 -2.4883872601158603e-05 2.4609890186584507e-07  3.5682658701932967e-07 -2.8169492819510431e-05 2.3719867925462351e-07  3.8985488326351750e-07 -3.1551080307361553e-05 2.5330755821445966e-07  4.1848094111102537e-07 -3.5109599786666743e-05 2.6320718225801829e-07  4.6604355853423183e-07 -3.8764574125001965e-05 2.7543353916137365e-07  5.1075627608900044e-07 -4.2509347726517511e-05 2.5803528680635361e-07  5.4855901709737164e-07 -4.6319472835020312e-05 2.8449890873114242e-07  5.8270140870054556e-07 -5.0208418938892371e-05 3.0629588226816605e-07  6.4444266952216734e-07 -5.4175219054458772e-05 3.0197051183079469e-07  6.7885424686271091e-07 -5.8196138207446562e-05 3.0280199779419543e-07  7.2817667336544120e-07 -6.2266712150845269e-05 3.0308317374873325e-07  7.8050240155222642e-07 -6.6384255415228593e-05 2.9239919654457150e-07  8.1813810673120427e-07 -7.0553675439813618e-05 2.9126050132519479e-07  8.5993377228280421e-07 -7.4750008411052360e-05 3.0166929854091981e-07  9.0235850397484001e-07 -7.8976577323725770e-05 3.0343919622613754e-07  9.5037999156246671e-07 -8.3215728877260016e-05 3.0380833883555562e-07  9.9706819879134180e-07 -8.7461145902375639e-05 3.0483757216353814e-07  1.0413851610047975e-06 -9.1712997587292604e-05 3.0095127163810302e-07  1.0855876347918427e-06 -9.5966057069807697e-05 2.9724495700410627e-07  1.1359026097352128e-06 -1.0021227730075809e-04 2.9843478838213697e-07  1.1821879571816605e-06 -1.0444787249305186e-04 2.9551811120387730e-07  1.2226105338189912e-06 -1.0867205682708471e-04 2.8954976291086353e-07  1.2645326765186875e-06 -1.1287915947258608e-04 2.8587540787625895e-07  1.3105394708429869e-06 -1.1706456903725922e-04 2.8593168339006591e-07  1.3557635814850379e-06 -1.2122580374130628e-04 2.8780097214818947e-07  1.4012862771709570e-06 -1.2536265851396564e-04 2.7989117551057624e-07  1.4437206927902698e-06 -1.2946805194065801e-04 2.7468078098255016e-07  1.4819839516503992e-06 -1.3352845157196870e-04 2.6515372533239333e-07  1.5286079281458665e-06 -1.3754959693845496e-04 2.5876896898480868e-07  1.5625138381223464e-06 -1.4153200042759702e-04 2.5308193116254139e-07  1.6022546950202453e-06 -1.4546840826413048e-04 2.5082250814516971e-07  1.6442560187940783e-06 -1.4935853497228372e-04 2.4888116173729821e-07  1.6852457141003700e-06 -1.5320963914802562e-04 2.5748396991050996e-07  1.7244448971303489e-06 -1.5701222907742811e-04 2.4807484794777436e-07  1.7657478166191211e-06 -1.6077286534439794e-04 2.4263204659524124e-07  1.8004683513163130e-06 -1.6447949635358330e-04 2.3562122004962141e-07  1.8365525131421553e-06 -1.6812524669541061e-04 2.1689917768963148e-07  1.8701459124630242e-06 -1.7172776645243631e-04 2.0755003750826670e-07  1.9012015014026322e-06 -1.7527197770760036e-04 2.1853516301525226e-07  1.9432341567234594e-06 -1.7877575845418964e-04 2.1279994262874144e-07  1.9708101771177395e-06 -1.8222102263835404e-04 2.1284285410675023e-07  2.0109342732320110e-06 -1.8561210996822152e-04 2.0567579417862222e-07  2.0441973345977233e-06 -1.8896298176718454e-04 1.9716346024806882e-07  2.0771765907132803e-06 -1.9225721324092658e-04 1.7471960445681946e-07  2.0986512660377569e-06 -1.9550425502750694e-04 1.6804337584179548e-07  2.1287071981830444e-06 -1.9870628038634228e-04 1.7943074785750796e-07  2.1674138093642672e-06 -2.0185632359709569e-04 1.7464658222209401e-07  2.1985534052207934e-06 -2.0494800523100992e-04 1.5021510082899460e-07  2.2140308965359785e-06 -2.0798786030956491e-04 1.4967038836179450e-07  2.2402819997066554e-06 -2.1097844459540927e-04 1.5628054024076313e-07  2.2735961128791630e-06 -2.1392414265785476e-04 1.5540164931473227e-07  2.3002971139146777e-06 -2.1683089181642881e-04 1.3636416224295509e-07  2.3288591199775352e-06 -2.1969155154332864e-04 1.2545570626809075e-07  2.3455873527860926e-06 -2.2252027467206453e-04 1.2370885710715366e-07  2.3760264319830021e-06 -2.2530021915313951e-04 1.1808806507781763e-07  2.3918942310197099e-06 -2.2804260447963973e-04 1.1540632049814617e-07  2.4140982269835671e-06 -2.3074442308132609e-04 1.2391501385438080e-07  2.4428943154472382e-06 -2.3340103584284147e-04 1.2152173661857571e-07  2.4663026887458583e-06 -2.3603104800565009e-04 1.0563806393852383e-07  2.4908757897760845e-06 -2.3863034161416925e-04 1.0081010697353021e-07  2.5082396019045401e-06 -2.4119212604563540e-04 9.5673270106761805e-08  2.5297713239098758e-06 -2.4372947522197184e-04 9.6497561526117327e-08  2.5504948147050656e-06 -2.4624053971651448e-04 9.3708600640232964e-08  2.5681683743697579e-06 -2.4872341640336183e-04 9.6666217231130800e-08  2.5894334305450764e-06 -2.5118263947998158e-04 9.4178541961001126e-08  2.6112214426164199e-06 -2.5361812309880388e-04 8.8764325551877925e-08  2.6327740649379034e-06 -2.5603909889164970e-04 8.1991201454534447e-08  2.6483355807920580e-06 -2.5843755036400007e-04 7.9346711845612274e-08  2.6695178643340965e-06 -2.6082257914009918e-04 7.8863702718335080e-08  2.6865788446428863e-06 -2.6319241431078933e-04 7.7591258951865827e-08  2.7045549792030471e-06 -2.6555010285280069e-04 7.7969434876149706e-08  2.7221547335466644e-06 -2.6789482360633886e-04 7.8756072728684687e-08  2.7416763876412276e-06 -2.7023042706442532e-04 7.5845696262736133e-08  2.7611546957674428e-06 -2.7255691559231661e-04 7.3469138874667588e-08  2.7778977160146459e-06 -2.7487597173937305e-04 7.3025841269063629e-08  2.7951367444491409e-06 -2.7719068685806903e-04 7.3549382693067161e-08  2.8131272422816272e-06 -2.7950051541597099e-04 7.2744515249673795e-08  2.8319865277326730e-06 -2.8180753682119814e-04 7.1213363755715950e-08  2.8500202410353368e-06 -2.8411176910140223e-04 7.0817981563255631e-08  2.8674659803860657e-06 -2.8641439512713920e-04 7.0747367616837172e-08  2.8852003118788580e-06 -2.8871707478549314e-04 7.0787709135278416e-08  2.9033944032319855e-06 -2.9101969836525506e-04 7.0980531921608347e-08  2.9211085565981810e-06 -2.9332261191618915e-04 7.0977471543620983e-08  2.9392733473979470e-06 -2.9562620438897564e-04 7.0963176025603081e-08  2.9709454457138944e-06 -3.0199355711502162e-04 -2.1380802977062627e-08  2.9915356892498521e-06 -3.0185557070539360e-04 3.3332663571332546e-07  3.0095698133824833e-06 -3.0172097258939520e-04 6.5855807975766166e-07  3.0267331701357785e-06 -3.0158880560362546e-04 9.6981504559895464e-07  3.0431775427903287e-06 -3.0145696423370918e-04 1.2653187602304443e-06  3.0585040041421420e-06 -3.0132413903171670e-04 1.5390801828160086e-06  3.0734363068273058e-06 -3.0119150090884107e-04 1.8069903955143771e-06  3.0870734969547536e-06 -3.0105868802007276e-04 2.0581473048212263e-06  3.0997014986766128e-06 -3.0092588868344997e-04 2.2880309149283952e-06  3.1109350207826709e-06 -3.0079314533168700e-04 2.5050112243127328e-06  3.1216969721514030e-06 -3.0066196715942262e-04 2.7074453646280130e-06  3.1305955630676274e-06 -3.0053145233223833e-04 2.8875259001516933e-06  3.1386179652209174e-06 -3.0040207260577004e-04 3.0488699291145500e-06  3.1451091123002035e-06 -3.0027215758061655e-04 3.1912245780855902e-06  3.1504487487951494e-06 -3.0014374908958187e-04 3.3102598858661885e-06  3.1537107916580064e-06 -3.0001572488038661e-04 3.4063359802153496e-06  3.1564634942588987e-06 -2.9988899255099045e-04 3.4881174872590571e-06  3.1581609594711160e-06 -2.9976329510228878e-04 3.5552681495808948e-06  3.1584448731024632e-06 -2.9963883574449842e-04 3.6028108949742090e-06  3.1577000667036776e-06 -2.9951519145572403e-04 3.6306035972281744e-06  3.1567188992780769e-06 -2.9939220868793108e-04 3.6515916500101507e-06  3.1544851891484103e-06 -2.9927041833900344e-04 3.6515452493440782e-06  3.1515555630204015e-06 -2.9914988020093391e-04 3.6414260543808411e-06  3.1476357764736768e-06 -2.9903044250829372e-04 3.6167129236496014e-06  3.1427571830919162e-06 -2.9891181629299371e-04 3.5678844294759295e-06  3.1368523905169369e-06 -2.9879434685858657e-04 3.4959700527493585e-06  3.1293952920462954e-06 -2.9867796229104970e-04 3.3924938770436360e-06  3.1209178909410256e-06 -2.9856261412687158e-04 3.2677718113160494e-06  3.1112451176420921e-06 -2.9844833851551525e-04 3.1101053793914997e-06  3.0996149215753833e-06 -2.9833510464494136e-04 2.9061548453047064e-06  3.0851908978033193e-06 -2.9822243415077474e-04 2.6383544154673381e-06  3.0653529619752981e-06 -2.9811145809171765e-04 2.2588298561511680e-06  3.0350083619387110e-06 -2.9800328806488648e-04 1.6551047609091460e-06  -3.7691128616170231e-08 -1.6544195547210665e-07 -3.7302092052438964e-08  -8.1015671759191091e-08 -4.4895178441048955e-07 -8.6703709696109752e-08  -9.7860675368311741e-08 -8.2008145020068586e-07 -1.7487710456804083e-07  -8.5172821112600752e-08 -1.6585717731279184e-06 -2.9606849369306154e-07  -3.4162178414321589e-08 -2.5753938924172304e-06 -3.9800305672769671e-07  -1.4695382085620634e-08 -3.5772516575336285e-06 -4.2928883108876116e-07  3.9922358792967539e-09 -5.2118397171716781e-06 -4.7455109818172931e-07  3.1255082808280704e-08 -6.9164212382102663e-06 -5.2455329987467579e-07  1.6601753460546236e-08 -8.8347834304083833e-06 -5.6623037860266643e-07  4.9676265623463395e-08 -1.0967748671715474e-05 -6.4645217615259471e-07  1.2276098351480954e-07 -1.3387832813739533e-05 -7.4375852207550946e-07  1.9239251980220939e-07 -1.5892276716433126e-05 -8.3806808598359120e-07  2.6968530575957599e-07 -1.8492870787246988e-05 -9.2174208346000314e-07  2.6919856341928695e-07 -2.1618300894239638e-05 -9.3065812839946961e-07  3.1994471333349904e-07 -2.4880047941636357e-05 -9.6511038194339496e-07  3.4415718881631524e-07 -2.8199372124152099e-05 -1.0206473510606932e-06  3.8383542457301768e-07 -3.1730193633146947e-05 -1.0639471328190190e-06  4.1938526028490076e-07 -3.5460716585047603e-05 -1.1292686752450899e-06  4.5716747459757900e-07 -3.9344185176745623e-05 -1.1901201993488873e-06  5.0670987725070650e-07 -4.3360873553449647e-05 -1.1955092309885639e-06  5.4001935912519871e-07 -4.7453235858943990e-05 -1.2031159867100511e-06  5.8302471305250518e-07 -5.1567005814332213e-05 -1.2186691854974656e-06  6.3054050638094641e-07 -5.5745230095312597e-05 -1.2272584886818673e-06  6.7161703750204387e-07 -5.9996544306653894e-05 -1.2428413082453301e-06  7.2092624267380154e-07 -6.4286492710112836e-05 -1.2570157247153755e-06  7.6520237577517727e-07 -6.8640591563857775e-05 -1.2549922572702789e-06  8.1352842681481543e-07 -7.3028513541442640e-05 -1.2672849357789643e-06  8.5916700859576701e-07 -7.7443091823255254e-05 -1.2698581334302535e-06  9.0801339585442736e-07 -8.1869606964673995e-05 -1.2671898005064948e-06  9.5340061105492473e-07 -8.6311345302762506e-05 -1.2590705395895350e-06  1.0010700876318646e-06 -9.0750968563916052e-05 -1.2528957154876086e-06  1.0499859553648155e-06 -9.5180136353485015e-05 -1.2487548420855777e-06  1.0914878863181364e-06 -9.9627995725745292e-05 -1.2378780042440944e-06  1.1381571043757051e-06 -1.0404270244024926e-04 -1.2300353567376956e-06  1.1909367724435536e-06 -1.0843346149681376e-04 -1.2261417901087728e-06  1.2339021854790858e-06 -1.1282892260947920e-04 -1.2095855575987884e-06  1.2804304566880970e-06 -1.1721054438387874e-04 -1.2014490001068449e-06  1.3222854069984702e-06 -1.2156722345653414e-04 -1.1827067766556418e-06  1.3665681950916264e-06 -1.2587482182761729e-04 -1.1655777850918094e-06  1.4053288388296744e-06 -1.3016889887768518e-04 -1.1432864983304638e-06  1.4461896878696665e-06 -1.3440645886543605e-04 -1.1169537468750761e-06  1.4907858009654356e-06 -1.3855812327756209e-04 -1.1032006964670125e-06  1.5267038610615501e-06 -1.4268392955793180e-04 -1.0776751992479795e-06  1.5685014618375028e-06 -1.4679958492309992e-04 -1.0644816445704645e-06  1.6097748258350767e-06 -1.5080998055452111e-04 -1.0535756177516294e-06  1.6465003504187346e-06 -1.5478801755268557e-04 -1.0299869420440709e-06  1.6930600681616140e-06 -1.5870139868157131e-04 -1.0171097647213100e-06  1.7325092095186853e-06 -1.6258157391439479e-04 -1.0014438303380860e-06  1.7708152091314613e-06 -1.6644833671581430e-04 -9.7520433497421563e-07  1.7986402629625504e-06 -1.7021910755891909e-04 -9.4967079553607300e-07  1.8368516907482478e-06 -1.7393753106394308e-04 -9.3133575165947737e-07  1.8694282848190086e-06 -1.7760543914078104e-04 -8.9627562038715893e-07  1.9051151459488039e-06 -1.8117931110411429e-04 -8.7149207264005725e-07  1.9407970904840263e-06 -1.8469891880641784e-04 -8.6503012676539982e-07  1.9778984356958766e-06 -1.8818427305064472e-04 -8.3857439002906325e-07  2.0075968190018038e-06 -1.9158405910611742e-04 -8.1445443335240602e-07  2.0321267897483003e-06 -1.9497665458318995e-04 -7.9393593318898951e-07  2.0643935036717906e-06 -1.9828504182962402e-04 -7.7517121906165341e-07  2.0995920296078634e-06 -2.0147201431934986e-04 -7.5194785859271132e-07  2.1354008764315511e-06 -2.0459617417918180e-04 -7.2323099550502540e-07  2.1682573193698674e-06 -2.0768461770794320e-04 -7.0568523480635852e-07  2.1946845498272366e-06 -2.1073016294642107e-04 -6.8765221303359775e-07  2.2155847699047766e-06 -2.1377190134968437e-04 -6.6743294274094018e-07  2.2421962732858010e-06 -2.1676478876410895e-04 -6.5859342156382409e-07  2.2645166228751409e-06 -2.1972976950687250e-04 -6.3710960649358655e-07  2.2949480765332752e-06 -2.2258667442209102e-04 -6.2710767809104366e-07  2.3179975540287190e-06 -2.2542894832338535e-04 -6.1409826085944051e-07  2.3419049592439064e-06 -2.2822346777178870e-04 -5.9763324542494214e-07  2.3690903172327471e-06 -2.3095205185361592e-04 -5.8029317156393228e-07  2.3889093237623523e-06 -2.3364513285032044e-04 -5.6558394822175348e-07  2.4204341425106399e-06 -2.3628074908784124e-04 -5.4561513346145620e-07  2.4384053810563427e-06 -2.3889937374970053e-04 -5.3405309142329665e-07  2.4623930268807815e-06 -2.4146433697213695e-04 -5.2636221856566608e-07  2.4841559556993395e-06 -2.4401898181468566e-04 -5.1281764513496172e-07  2.5074758545945439e-06 -2.4651425327489089e-04 -4.9601058739494485e-07  2.5300894116088866e-06 -2.4899449879823773e-04 -4.8385688719989832e-07  2.5485781885517188e-06 -2.5143623592721381e-04 -4.7775529887474750e-07  2.5707184542434441e-06 -2.5386713309792224e-04 -4.7312082379984618e-07  2.5923205954332688e-06 -2.5625362867931706e-04 -4.6509159875424781e-07  2.6138925588325609e-06 -2.5861497503547472e-04 -4.5872017259718672e-07  2.6329484023313117e-06 -2.6097375635034180e-04 -4.5255559075785500e-07  2.6528812021620953e-06 -2.6331754750407642e-04 -4.4619928751048534e-07  2.6723963370746064e-06 -2.6565083334651894e-04 -4.3992699269825891e-07  2.6880649312939849e-06 -2.6796816596038898e-04 -4.3849679330915303e-07  2.7040975898986182e-06 -2.7028141837868373e-04 -4.3446152756701002e-07  2.7229356667800807e-06 -2.7257084532357028e-04 -4.3143423053177706e-07  2.7426602436076059e-06 -2.7484782544069295e-04 -4.2796194108214407e-07  2.7604673702878524e-06 -2.7712400864718324e-04 -4.2693942834007724e-07  2.7769922185160648e-06 -2.7939870687928713e-04 -4.2655210734331170e-07  2.7957819153972408e-06 -2.8166389048910984e-04 -4.2452691142937812e-07  2.8134501609084990e-06 -2.8393061651443255e-04 -4.2472707713197975e-07  2.8298583752143515e-06 -2.8620146159825293e-04 -4.2416613554566913e-07  2.8465267037829602e-06 -2.8847322070188567e-04 -4.2425130365548552e-07  2.8633670596093725e-06 -2.9074429761336826e-04 -4.2495105147879401e-07  2.8798753536007124e-06 -2.9301912715569900e-04 -4.2537148675509636e-07  2.8972368526732398e-06 -2.9529502977752896e-04 -4.2663864994574705e-07  2.9142802742034095e-06 -2.9757073107240757e-04 -4.2702850225711711e-07  2.9307402401894893e-06 -2.9985182299212927e-04 -4.2668120981188452e-07  2.8837034210919260e-06 -2.9800914211435648e-04 -1.4613032955105181e-06  2.8500760651089457e-06 -2.9811623667390570e-04 -2.1675821954282261e-06  2.8302432390861406e-06 -2.9822736189410277e-04 -2.5826539010383564e-06  2.8152262815074169e-06 -2.9833982207790527e-04 -2.8970113077172709e-06  2.8031166271329661e-06 -2.9845328577882374e-04 -3.1434354982702002e-06  2.7926686435029375e-06 -2.9856764442540563e-04 -3.3444283101742907e-06  2.7836252118437867e-06 -2.9868306392708314e-04 -3.5141312392748815e-06  2.7760292708973360e-06 -2.9879970558827903e-04 -3.6442167821220738e-06  2.7699709673509287e-06 -2.9891724961155500e-04 -3.7456374111864871e-06  2.7645008738005809e-06 -2.9903583866199067e-04 -3.8222592698475168e-06  2.7601618532512870e-06 -2.9915563555378040e-04 -3.8758223081076776e-06  2.7567039148922630e-06 -2.9927630411734438e-04 -3.9112520623429485e-06  2.7543071797551116e-06 -2.9939801503803769e-04 -3.92573