<?xml version="1.0"?>
<VTKFile type="UnstructuredGrid"  version="0.1"  >
<UnstructuredGrid>
<Piece  NumberOfPoints="10958" NumberOfCells="41820">
<Points>
<DataArray  type="Float64"  NumberOfComponents="3"  format="ascii">1 0.04955 0  3.483770450905253e-06 0.04864772283650545 0  3.483770450905253e-06 0.04864772283650545 2.95  1 0.04955 2.95  0.9705745651584323 0.0546328692740541 0  0.9410403409854562 0.05904933268918263 0  0.9114506936029688 0.06307764259166145 0  0.8818365365778597 0.06692205633990718 0  0.852195425756178 0.07055529100758898 0  0.8225213484314672 0.07390813590379837 0  0.7928382076274137 0.07717791230068967 0  0.7631311412584285 0.08022519712851128 0  0.7333970986343074 0.08299595685799818 0  0.7036468593402103 0.08558339900696151 0  0.6738808305098906 0.08798485813956464 0  0.6440919092681797 0.09008334865923617 0  0.6142870835549664 0.09194561288677774 0  0.5844675933514397 0.09355367701932085 0  0.5546335832429207 0.09486496269114339 0  0.5247876530181904 0.095868659884793 0  0.4949363523436856 0.09668736484019783 0  0.4650802095563029 0.09731740696399105 0  0.4352195800941197 0.09768943189876603 0  0.405357042743103 0.09780828360274334 0  0.3754942534896675 0.09784351677757946 0  0.3456322298379585 0.09760772238205492 0  0.3157719755355017 0.09723970101506153 0  0.2859142869264596 0.09668561931752166 0  0.2560638915081948 0.09582390318294828 0  0.2262236143831659 0.09466390431188013 0  0.1964020995566796 0.09309886371899376 0  0.1665963941161298 0.09125714074218327 0  0.1368197180220126 0.08899319787719009 0  0.1070946678970156 0.08612945256268216 0  0.07746305623222323 0.08244010579101241 0  0.04805012948181673 0.07731042839253653 0  0.01932358256457366 0.06928107812002522 0  3.483770450905253e-06 0.04864772283650545 0.02979797979797999  3.483770450905253e-06 0.04864772283650545 0.05959595959595966  3.483770450905253e-06 0.04864772283650545 0.08939393939393965  3.483770450905253e-06 0.04864772283650545 0.1191919191919193  3.483770450905253e-06 0.04864772283650545 0.1489898989898993  3.483770450905253e-06 0.04864772283650545 0.178787878787879  3.483770450905253e-06 0.04864772283650545 0.2085858585858589  3.483770450905253e-06 0.04864772283650545 0.2383838383838386  3.483770450905253e-06 0.04864772283650545 0.2681818181818186  3.483770450905253e-06 0.04864772283650545 0.2979797979797986  3.483770450905253e-06 0.04864772283650545 0.3277777777777782  3.483770450905253e-06 0.04864772283650545 0.3575757575757582  3.483770450905253e-06 0.04864772283650545 0.3873737373737379  3.483770450905253e-06 0.04864772283650545 0.4171717171717179  3.483770450905253e-06 0.04864772283650545 0.4469696969696979  3.483770450905253e-06 0.04864772283650545 0.4767676767676775  3.483770450905253e-06 0.04864772283650545 0.5065656565656572  3.483770450905253e-06 0.04864772283650545 0.5363636363636372  3.483770450905253e-06 0.04864772283650545 0.5661616161616169  3.483770450905254e-06 0.04864772283650545 0.5959595959595969  3.483770450905253e-06 0.04864772283650545 0.6257575757575765  3.483770450905254e-06 0.04864772283650545 0.6555555555555564  3.483770450905253e-06 0.04864772283650545 0.6853535353535362  3.483770450905253e-06 0.04864772283650545 0.7151515151515158  3.483770450905253e-06 0.04864772283650545 0.7449494949494958  3.483770450905253e-06 0.04864772283650545 0.7747474747474755  3.483770450905253e-06 0.04864772283650545 0.8045454545454552  3.483770450905253e-06 0.04864772283650545 0.8343434343434351  3.483770450905253e-06 0.04864772283650545 0.8641414141414151  3.483770450905253e-06 0.04864772283650545 0.8939393939393945  3.483770450905254e-06 0.04864772283650545 0.9237373737373745  3.483770450905253e-06 0.04864772283650545 0.9535353535353545  3.483770450905254e-06 0.04864772283650545 0.9833333333333341  3.483770450905253e-06 0.04864772283650545 1.013131313131314  3.483770450905254e-06 0.04864772283650545 1.042929292929294  3.483770450905253e-06 0.04864772283650545 1.072727272727274  3.483770450905254e-06 0.04864772283650545 1.102525252525254  3.483770450905253e-06 0.04864772283650545 1.132323232323234  3.483770450905254e-06 0.04864772283650545 1.162121212121214  3.483770450905253e-06 0.04864772283650545 1.191919191919194  3.483770450905254e-06 0.04864772283650545 1.221717171717174  3.483770450905253e-06 0.04864772283650545 1.251515151515153  3.483770450905254e-06 0.04864772283650545 1.281313131313133  3.483770450905253e-06 0.04864772283650545 1.311111111111113  3.483770450905253e-06 0.04864772283650545 1.340909090909093  3.483770450905253e-06 0.04864772283650545 1.370707070707073  3.483770450905253e-06 0.04864772283650545 1.400505050505053  3.483770450905253e-06 0.04864772283650545 1.430303030303033  3.483770450905253e-06 0.04864772283650545 1.460101010101013  3.483770450905253e-06 0.04864772283650545 1.489898989898993  3.483770450905253e-06 0.04864772283650545 1.519696969696973  3.483770450905253e-06 0.04864772283650545 1.549494949494953  3.483770450905253e-06 0.04864772283650545 1.579292929292933  3.483770450905253e-06 0.04864772283650545 1.609090909090913  3.483770450905253e-06 0.04864772283650545 1.638888888888893  3.483770450905254e-06 0.04864772283650545 1.668686868686872  3.483770450905253e-06 0.04864772283650545 1.698484848484852  3.483770450905254e-06 0.04864772283650545 1.728282828282832  3.483770450905253e-06 0.04864772283650545 1.758080808080812  3.483770450905254e-06 0.04864772283650545 1.787878787878792  3.483770450905253e-06 0.04864772283650545 1.817676767676772  3.483770450905254e-06 0.04864772283650545 1.847474747474752  3.483770450905253e-06 0.04864772283650545 1.877272727272732  3.483770450905254e-06 0.04864772283650545 1.907070707070712  3.483770450905253e-06 0.04864772283650545 1.936868686868691  3.483770450905253e-06 0.04864772283650545 1.966666666666671  3.483770450905253e-06 0.04864772283650545 1.996464646464651  3.483770450905253e-06 0.04864772283650545 2.02626262626263  3.483770450905253e-06 0.04864772283650545 2.056060606060611  3.483770450905253e-06 0.04864772283650545 2.08585858585859  3.483770450905254e-06 0.04864772283650545 2.11565656565657  3.483770450905253e-06 0.04864772283650545 2.14545454545455  3.483770450905253e-06 0.04864772283650545 2.175252525252529  3.483770450905253e-06 0.04864772283650545 2.205050505050508  3.483770450905253e-06 0.04864772283650545 2.234848484848488  3.483770450905253e-06 0.04864772283650545 2.264646464646468  3.483770450905253e-06 0.04864772283650545 2.294444444444448  3.483770450905253e-06 0.04864772283650545 2.324242424242427  3.483770450905253e-06 0.04864772283650545 2.354040404040407  3.483770450905253e-06 0.04864772283650545 2.383838383838387  3.483770450905254e-06 0.04864772283650545 2.413636363636366  3.483770450905253e-06 0.04864772283650545 2.443434343434346  3.483770450905253e-06 0.04864772283650545 2.473232323232326  3.483770450905253e-06 0.04864772283650545 2.503030303030305  3.483770450905253e-06 0.04864772283650545 2.532828282828285  3.483770450905253e-06 0.04864772283650545 2.562626262626264  3.483770450905253e-06 0.04864772283650545 2.592424242424244  3.483770450905254e-06 0.04864772283650545 2.622222222222224  3.483770450905253e-06 0.04864772283650545 2.652020202020203  3.483770450905253e-06 0.04864772283650545 2.681818181818183  3.483770450905253e-06 0.04864772283650545 2.711616161616163  3.483770450905253e-06 0.04864772283650545 2.741414141414142  3.483770450905254e-06 0.04864772283650545 2.771212121212122  3.483770450905253e-06 0.04864772283650545 2.801010101010102  3.483770450905253e-06 0.04864772283650545 2.830808080808081  3.483770450905253e-06 0.04864772283650545 2.860606060606061  3.483770450905253e-06 0.04864772283650545 2.890404040404041  3.483770450905253e-06 0.04864772283650545 2.92020202020202  0.9705745651584323 0.0546328692740541 2.95  0.9410403409854562 0.05904933268918263 2.95  0.9114506936029688 0.06307764259166145 2.95  0.8818365365778597 0.06692205633990718 2.95  0.852195425756178 0.07055529100758898 2.95  0.8225213484314672 0.07390813590379837 2.95  0.7928382076274137 0.07717791230068967 2.95  0.7631311412584285 0.08022519712851128 2.95  0.7333970986343074 0.08299595685799818 2.95  0.7036468593402103 0.08558339900696151 2.95  0.6738808305098906 0.08798485813956464 2.95  0.6440919092681797 0.09008334865923617 2.95  0.6142870835549664 0.09194561288677774 2.95  0.5844675933514397 0.09355367701932085 2.95  0.5546335832429207 0.09486496269114339 2.95  0.5247876530181904 0.095868659884793 2.95  0.4949363523436856 0.09668736484019783 2.95  0.4650802095563029 0.09731740696399105 2.95  0.4352195800941197 0.09768943189876603 2.95  0.405357042743103 0.09780828360274334 2.95  0.3754942534896675 0.09784351677757946 2.95  0.3456322298379585 0.09760772238205492 2.95  0.3157719755355017 0.09723970101506153 2.95  0.2859142869264596 0.09668561931752166 2.95  0.2560638915081948 0.09582390318294828 2.95  0.2262236143831659 0.09466390431188013 2.95  0.1964020995566796 0.09309886371899376 2.95  0.1665963941161298 0.09125714074218327 2.95  0.1368197180220126 0.08899319787719009 2.95  0.1070946678970156 0.08612945256268216 2.95  0.07746305623222323 0.08244010579101241 2.95  0.04805012948181673 0.07731042839253653 2.95  0.01932358256457366 0.06928107812002522 2.95  1 0.04955 0.02979797979797999  1 0.04955 0.05959595959595966  1 0.04955 0.08939393939393965  1 0.04955 0.1191919191919193  1 0.04955 0.1489898989898993  1 0.04955 0.178787878787879  1 0.04955 0.2085858585858589  1 0.04955 0.2383838383838386  1 0.04955 0.2681818181818186  1 0.04955 0.2979797979797986  1 0.04955 0.3277777777777782  1 0.04955 0.3575757575757582  1 0.04955 0.3873737373737379  1 0.04955 0.4171717171717179  1 0.04955 0.4469696969696979  1 0.04955 0.4767676767676775  1 0.04955 0.5065656565656572  1 0.04955 0.5363636363636372  1 0.04955 0.5661616161616169  1 0.04955 0.5959595959595969  1 0.04955 0.6257575757575765  1 0.04955 0.6555555555555564  1 0.04955 0.6853535353535362  1 0.04955 0.7151515151515158  1 0.04955 0.7449494949494958  1 0.04955 0.7747474747474755 
[...]
<PointData  Vectors="Displacement"> 
<DataArray  type="Float64"  Name="Displacement"  NumberOfComponents="3" format="ascii">0.0000000000000000e+00 0.0000000000000000e+00 0.0000000000000000e+00  0.0000000000000000e+00 0.0000000000000000e+00 0.0000000000000000e+00  4.8606180309176544e-06 -4.4071526006088239e-04 2.8415026164503344e-07  4.8525239213929932e-06 -4.4544506789432004e-04 -1.0495185999763856e-06  0.0000000000000000e+00 0.0000000000000000e+00 0.0000000000000000e+00  0.0000000000000000e+00 0.0000000000000000e+00 0.0000000000000000e+00  0.0000000000000000e+00 0.0000000000000000e+00 0.0000000000000000e+00  0.0000000000000000e+00 0.0000000000000000e+00 0.0000000000000000e+00  0.0000000000000000e+00 0.0000000000000000e+00 0.0000000000000000e+00  0.0000000000000000e+00 0.0000000000000000e+00 0.0000000000000000e+00  0.0000000000000000e+00 0.0000000000000000e+00 0.0000000000000000e+00  0.0000000000000000e+00 0.0000000000000000e+00 0.0000000000000000e+00  0.0000000000000000e+00 0.0000000000000000e+00 0.0000000000000000e+00  0.0000000000000000e+00 0.0000000000000000e+00 0.0000000000000000e+00  0.0000000000000000e+00 0.0000000000000000e+00 0.0000000000000000e+00  0.0000000000000000e+00 0.0000000000000000e+00 0.0000000000000000e+00  0.0000000000000000e+00 0.0000000000000000e+00 0.0000000000000000e+00  0.0000000000000000e+00 0.0000000000000000e+00 0.0000000000000000e+00  0.0000000000000000e+00 0.0000000000000000e+00 0.0000000000000000e+00  0.0000000000000000e+00 0.0000000000000000e+00 0.0000000000000000e+00  0.0000000000000000e+00 0.0000000000000000e+00 0.0000000000000000e+00  0.0000000000000000e+00 0.0000000000000000e+00 0.0000000000000000e+00  0.0000000000000000e+00 0.0000000000000000e+00 0.0000000000000000e+00  0.0000000000000000e+00 0.0000000000000000e+00 0.0000000000000000e+00  0.0000000000000000e+00 0.0000000000000000e+00 0.0000000000000000e+00  0.0000000000000000e+00 0.0000000000000000e+00 0.0000000000000000e+00  0.0000000000000000e+00 0.0000000000000000e+00 0.0000000000000000e+00  0.0000000000000000e+00 0.0000000000000000e+00 0.0000000000000000e+00  0.0000000000000000e+00 0.0000000000000000e+00 0.0000000000000000e+00  0.0000000000000000e+00 0.0000000000000000e+00 0.0000000000000000e+00  0.0000000000000000e+00 0.0000000000000000e+00 0.0000000000000000e+00  0.0000000000000000e+00 0.0000000000000000e+00 0.0000000000000000e+00  0.0000000000000000e+00 0.0000000000000000e+00 0.0000000000000000e+00  0.0000000000000000e+00 0.0000000000000000e+00 0.0000000000000000e+00  0.0000000000000000e+00 0.0000000000000000e+00 0.0000000000000000e+00  0.0000000000000000e+00 0.0000000000000000e+00 0.0000000000000000e+00  0.0000000000000000e+00 0.0000000000000000e+00 0.0000000000000000e+00  -1.3355480022276604e-08 1.0771046709138799e-07 8.7657288316938190e-09  1.2300245785912538e-08 -6.9956348379345452e-08 7.4220562061910233e-08  3.7239183784566434e-08 -5.1959778245255803e-07 1.4694820871029071e-07  7.2187494349312975e-08 -1.3071132490214861e-06 1.5793865253608123e-07  6.5855613731601842e-08 -2.4137759546414232e-06 1.7880119485004955e-07  1.0279108136414946e-07 -3.8598616049487956e-06 1.8892794322062393e-07  1.2114564394699395e-07 -5.6575895002842976e-06 1.8467795018913265e-07  1.3357674806412142e-07 -7.7055444396642755e-06 2.4201910271996675e-07  1.7114513921665281e-07 -1.0047841106478014e-05 2.5801451782072299e-07  1.8951999690101770e-07 -1.2691563787472258e-05 2.6922762088718197e-07  2.3762328522600021e-07 -1.5570153908172724e-05 2.8916818686962016e-07  2.8840452938867047e-07 -1.8688876796401374e-05 2.8941911372751413e-07  3.0685316246953276e-07 -2.2066707436086723e-05 3.1031707576780728e-07  3.5639834873580771e-07 -2.5629089334217427e-05 2.7466542901381918e-07  3.7745375313747317e-07 -2.9394455455456824e-05 3.2030238849963409e-07  4.4103474557247561e-07 -3.3366507009761993e-05 3.1022713873304612e-07  4.8288334152941993e-07 -3.7464916808089630e-05 3.3201088026720770e-07  5.1786918056545257e-07 -4.1803378488938602e-05 3.4750336209783969e-07  5.8054798189297546e-07 -4.6275962985571323e-05 3.6587234235408990e-07  6.3498668664309689e-07 -5.0876291096528235e-05 3.4198162170043044e-07  6.8401337193707874e-07 -5.5571652228179547e-05 3.8148671037749091e-07  7.2904960905074531e-07 -6.0383289034365263e-05 4.1543665078424879e-07  8.1135519723726237e-07 -6.5313280948300014e-05 4.1210378768052810e-07  8.5365519254802498e-07 -7.0329601098887445e-05 4.1550384278131319e-07  9.2197261919333274e-07 -7.5428300474224532e-05 4.1861002641569672e-07  9.9054634908415037e-07 -8.0608078862761832e-05 4.0173153656065132e-07  1.0367924791186866e-06 -8.5885443596648396e-05 3.9972314204794302e-07  1.0902496479339904e-06 -9.1218462756483408e-05 4.2016679393958935e-07  1.1486273827883146e-06 -9.6623166970621384e-05 4.2854546745987386e-07  1.2149806832756255e-06 -1.0206824873508906e-04 4.3406829305454122e-07  1.2766289487650850e-06 -1.0754597971562314e-04 4.3940143776054416e-07  1.3386314766661563e-06 -1.1306002225486050e-04 4.3949787252660641e-07  1.4018081338990677e-06 -1.1860862763372867e-04 4.3709943465154603e-07  1.4700978810068052e-06 -1.2418186977526761e-04 4.3417172095050291e-07  1.5299925676009485e-06 -1.2976295762280127e-04 4.3384067762855069e-07  1.5865939307544565e-06 -1.3536285436235046e-04 4.3777489472816897e-07  1.6516448980656338e-06 -1.4097462195528373e-04 4.3658105356470132e-07  1.7169068442322794e-06 -1.4659143887321881e-04 4.3688433278054957e-07  1.7812129159628344e-06 -1.5220946928298421e-04 4.3555602073081106e-07  1.8426493006762504e-06 -1.5781910567149026e-04 4.3374802574934131e-07  1.9051808828109986e-06 -1.6342320978738020e-04 4.3322768060083723e-07  1.9656706376937473e-06 -1.6901467989957413e-04 4.2864753043379173e-07  2.0296695716912069e-06 -1.7458891013253421e-04 4.2584453118053621e-07  2.0879014932966764e-06 -1.8014595904252553e-04 4.2202886302011087e-07  2.1492874459983372e-06 -1.8567993262925121e-04 4.2039875349753668e-07  2.2114998369973882e-06 -1.9118836465741059e-04 4.1886683279958220e-07  2.2746640652226922e-06 -1.9667408838441053e-04 4.2387583981941666e-07  2.3346008739621678e-06 -2.0213146208530736e-04 4.1870762063126112e-07  2.3963606186052598e-06 -2.0756277941094957e-04 4.1533259007359845e-07  2.4546259569603667e-06 -2.1296041225821614e-04 4.1146899207045489e-07  2.5124861999638529e-06 -2.1831848748853284e-04 3.9895030707847888e-07  2.5694629228780988e-06 -2.2364761615177098e-04 3.9223756006963374e-07  2.6257623956155791e-06 -2.2893663120019121e-04 3.9964966056592399e-07  2.6880391223743900e-06 -2.3419718556310721e-04 3.9568911237752468e-07  2.7410950595088464e-06 -2.3941615324228580e-04 3.9611169759575414e-07  2.8027961756063001e-06 -2.4459557648853970e-04 3.9080679637121104e-07  2.8595206068554841e-06 -2.4974545296096762e-04 3.8486382591892669e-07  2.9155663029258926e-06 -2.5485307810766805e-04 3.6807974790445742e-07  2.9633478133817037e-06 -2.5992567114755104e-04 3.6290779583326438e-07  3.0184222393041891e-06 -2.6496406989306867e-04 3.7161840754223887e-07  3.0792503545516387e-06 -2.6996257447579181e-04 3.6797930055629322e-07  3.1339791447673527e-06 -2.7491599143267124e-04 3.4912995498465833e-07  3.1770795825952866e-06 -2.7982913773833061e-04 3.4861684151501730e-07  3.2287637833972338e-06 -2.8470359779555977e-04 3.5375056144016890e-07  3.2857512817366596e-06 -2.8954249428674852e-04 3.5322863487957523e-07  3.3371998506886705e-06 -2.9435013306175402e-04 3.3805000175014338e-07  3.3903843869817439e-06 -2.9912083242945381e-04 3.2932053747519965e-07  3.4341467212492262e-06 -3.0386564827956881e-04 3.2794567939074262e-07  3.4889439345062666e-06 -3.0857103170568099e-04 3.2336719264774457e-07  3.5318267964889388e-06 -3.1324578338013233e-04 3.2112220718088253e-07  3.5800967288198896e-06 -3.1788716487632444e-04 3.2811394207278808e-07  3.6336128743679390e-06 -3.2249123716506260e-04 3.2620218711666559e-07  3.6824801751657030e-06 -3.2707329592336420e-04 3.1317649401539497e-07  3.7325563619750078e-06 -3.3162987235463856e-04 3.0915571944591084e-07  3.7766332719029834e-06 -3.3615520015202325e-04 3.0488026004111123e-07  3.8242264541300401e-06 -3.4065989503929099e-04 3.0561856855435712e-07  3.8710063718928458e-06 -3.4514247348142225e-04 3.0325631077680368e-07  3.9153712828159880e-06 -3.4960123083762327e-04 3.0576435504435374e-07  3.9627231695150425e-06 -3.5403994316109594e-04 3.0376034087508560e-07  4.0104424630793104e-06 -3.5845842886514211e-04 2.9922361474315916e-07  4.0579773918210127e-06 -3.6286449224796099e-04 2.9346626408734323e-07  4.1004764342357951e-06 -3.6725129575403489e-04 2.9122374825532620e-07  4.1477526157722180e-06 -3.7162651326087576e-04 2.9082551772591953e-07  4.1914940575803874e-06 -3.7598866062419983e-04 2.8973293251068986e-07  4.2360248682024923e-06 -3.8034031688065080e-04 2.9007066672785227e-07  4.2802699473971168e-06 -3.8468072795158604e-04 2.9077515487276757e-07  4.3261276703650142e-06 -3.8901322335947183e-04 2.8831142683981184e-07  4.3719260176202037e-06 -3.9333777152301416e-04 2.8627731801765815e-07  4.4153973691276667e-06 -3.9765581611286518e-04 2.8590223124079027e-07  4.4593122321500325e-06 -4.0197002565009205e-04 2.8637322197767711e-07  4.5038741620498719e-06 -4.0627993179931301e-04 2.8570430294207853e-07  4.5491512222087876e-06 -4.1058733448386223e-04 2.8437117278212462e-07  4.5937409312972765e-06 -4.1489225052646561e-04 2.8402860583353839e-07  4.6378133422201500e-06 -4.1919571790340819e-04 2.8397170898741328e-07  4.6821433497063976e-06 -4.2349918048610076e-04 2.8401666926335108e-07  4.7268623312200891e-06 -4.2780255894427186e-04 2.8418264985752480e-07  4.7711735525796093e-06 -4.3210616116357768e-04 2.8418563236561536e-07  4.8158701632839214e-06 -4.3641033112135335e-04 2.8417295084909107e-07  4.8791034364825324e-06 -4.4529198893762282e-04 -2.7605795699740840e-07  4.9016924324398435e-06 -4.4514069249293638e-04 4.0216419438210240e-07  4.9216667869025740e-06 -4.4499218438499784e-04 1.0248280117797988e-06  4.9406911902298276e-06 -4.4484569140277658e-04 1.6211613593315869e-06  4.9588648177794734e-06 -4.4469942194856035e-04 2.1875082972176072e-06  4.9757637185518739e-06 -4.4455225553749890e-04 2.7133254859113553e-06  4.9922313629365900e-06 -4.4440523275419264e-04 3.2276395790084906e-06  5.0073397806060370e-06 -4.4425802682410202e-04 3.7102215205413682e-06  5.0212727039586120e-06 -4.4411079737748164e-04 4.1529719965847961e-06  5.0338087401807398e-06 -4.4396359339374448e-04 4.5703400382826226e-06  5.0457312705139762e-06 -4.4381770387353199e-04 4.9607145779840740e-06  5.0557207505219644e-06 -4.4367234780918747e-04 5.3082594037156766e-06  5.0646935471995868e-06 -4.4352793579313974e-04 5.6212920929912229e-06  5.0720752902080178e-06 -4.4338304193556612e-04 5.8981822790130023e-06  5.0781357648795356e-06 -4.4323940377273297e-04 6.1318981312030082e-06  5.0820794986459736e-06 -4.4309606895957739e-04 6.3218936322399646e-06  5.0853780038048172e-06 -4.4295382125202250e-04 6.4851793403049338e-06  5.0875623415666717e-06 -4.4281243440338371e-04 6.6211796046485261e-06  5.0882488363062511e-06 -4.4267208153915360e-04 6.7202015237526533e-06  5.0877679349718430e-06 -4.4253240691620558e-04 6.7825041134831830e-06  5.0869890930677397e-06 -4.4239328404884414e-04 6.8324415941155894e-06  5.0848309099401966e-06 -4.4225516264359408e-04 6.8431594810801283e-06  5.0819287677509297e-06 -4.4211809464014351e-04 6.8349025566279410e-06  5.0779696211138058e-06 -4.4198195020014348e-04 6.7995887106593245e-06  5.0728336629273311e-06 -4.4184649364299147e-04 6.7195463420076034e-06  5.0664787850638639e-06 -4.4171202339914978e-04 6.5963861903066142e-06  5.0583337492778216e-06 -4.4157848667739145e-04 6.4144898212498268e-06  5.0489964539652432e-06 -4.4144584226790760e-04 6.1927343714566129e-06  5.0381488869645348e-06 -4.4131413586081749e-04 5.9097025414311128e-06  5.0249384209905254e-06 -4.4118337098323734e-04 5.5400507088770815e-06  5.0083942153408876e-06 -4.4105319155596218e-04 5.0510319614016222e-06  4.9855748007048850e-06 -4.4092470747523414e-04 4.3534286253731516e-06  4.9504576631403971e-06 -4.4079940677652996e-04 3.2362791153692233e-06  -4.3677899726755480e-08 -1.4545195988208863e-07 -3.7253565965924544e-08  -9.1699961267166802e-08 -4.3215957375760052e-07 -9.0523440367755240e-08  -1.1020666679601906e-07 -8.1929632871536131e-07 -1.8981429135367382e-07  -9.4058185351913765e-08 -1.7433378988705296e-06 -3.3082839716617983e-07  -3.3023354075479851e-08 -2.7581936212256061e-06 -4.5116077073570165e-07  -9.5006885938479172e-09 -3.8730573344943147e-06 -4.8827488556357443e-07  1.3079121241585249e-08 -5.7405584362815259e-06 -5.4211333291697515e-07  4.5909212627183811e-08 -7.6921357825178167e-06 -6.0187276914926564e-07  2.7917044963403772e-08 -9.8999757278878377e-06 -6.5187261967201365e-07  6.7852103611008971e-08 -1.2369777823004947e-05 -7.4989130786670055e-07  1.5753157499089570e-07 -1.5188343160520534e-05 -8.7102708479150803e-07  2.4340416985193722e-07 -1.8110581756380046e-05 -9.8979278601093892e-07  3.3949916547288704e-07 -2.1151149789431257e-05 -1.0968888165332391e-06  3.3710231830312944e-07 -2.4855175433681615e-05 -1.1088891071421995e-06  4.0024192761029427e-07 -2.8735449831697274e-05 -1.1542207012538934e-06  4.3129450146361646e-07 -3.2678176054409239e-05 -1.2266095103279110e-06  4.8127966787436732e-07 -3.6906326777277962e-05 -1.2852246539493892e-06  5.2576018119863440e-07 -4.1400031772724442e-05 -1.3754514632673833e-06  5.7252984925706189e-07 -4.6105197660763509e-05 -1.4636677732909827e-06  6.3698169093108082e-07 -5.1000381696969238e-05 -1.4758761442001685e-06  6.7576979509636680e-07 -5.6008679695155028e-05 -1.4894759791404422e-06  7.3029885201249393e-07 -6.1053364142054102e-05 -1.5160915870200004e-06  7.9186663716332774e-07 -6.6189956092302848e-05 -1.5326159380221160e-06  8.4455201704004183e-07 -7.1442992972910790e-05 -1.5611471383770523e-06  9.1013536357414798e-07 -7.6769891877843724e-05 -1.5904581113572749e-06  9.6580506297430756e-07 -8.2197882076841784e-05 -1.5897498981238908e-06  1.0289818776622585e-06 -8.7707567478851540e-05 -1.6262029425024251e-06  1.0869520764461813e-06 -9.3300505584594824e-05 -1.6395880238009480e-06  1.1512554402803688e-06 -9.8922502603058306e-05 -1.6489149068602330e-06  1.2187241211450510e-06 -1.0459504816199734e-04 -1.6552865304263664e-06  1.2844249347736714e-06 -1.1027361790810472e-04 -1.6562536650406200e-06  1.3490122107975700e-06 -1.1596965331283179e-04 -1.6537446979796340e-06  1.4092494445099045e-06 -1.2171854989906308e-04 -1.6554118074289379e-06  1.4717427270747387e-06 -1.2747104505002029e-04 -1.6586302946267735e-06  1.5399143749542691e-06 -1.3323856266979920e-04 -1.6550486288835774e-06  1.6029189676406996e-06 -1.3902194080263192e-04 -1.6531784883576855e-06  1.6708950936926873e-06 -1.4479941778827626e-04 -1.6467660656825367e-06  1.7339097051335913e-06 -1.5060602752458763e-04 -1.6368547111910909e-06  1.7956115161022115e-06 -1.5638923723108441e-04 -1.6316219545416856e-06  1.8555944954265750e-06 -1.6217844978295913e-04 -1.6187058895760615e-06  1.9149943805661143e-06 -1.6796414299511493e-04 -1.6031817463226205e-06  1.9792634027528478e-06 -1.7368007542333062e-04 -1.5951334779748673e-06  2.0360289669186440e-06 -1.7938823195645347e-04 -1.5781554098654702e-06  2.0987589676884379e-06 -1.8509441583920602e-04 -1.5673717664992830e-06  2.1613801745824449e-06 -1.9072916414837108e-04 -1.5591479967377778e-06  2.2197260955693980e-06 -1.9634231566084613e-04 -1.5425080375738598e-06  2.2852447163551128e-06 -2.0191805608714232e-04 -1.5343202086479831e-06  2.3466856281392788e-06 -2.0746809663417347e-04 -1.5226839951634639e-06  2.4052299117431550e-06 -2.1302136945047055e-04 -1.5049470986355106e-06  2.4587264545109954e-06 -2.1850731853932727e-04 -1.4855417359197688e-06  2.5192110602033784e-06 -2.2395652428199538e-04 -1.4718847475037045e-06  2.5731968735205189e-06 -2.2937123806235466e-04 -1.4453224242769683e-06  2.6317035697876126e-06 -2.3471104352117757e-04 -1.4265247103217635e-06  2.6907986627569727e-06 -2.4001290467936468e-04 -1.4208105668323795e-06  2.7502008915906910e-06 -2.4529315133192008e-04 -1.4004672172802948e-06  2.8037520835143824e-06 -2.5050515401186976e-04 -1.3812005323404461e-06  2.8538667825246686e-06 -2.5571364355165416e-04 -1.3643306690679100e-06  2.9089327420326982e-06 -2.6086563230737198e-04 -1.3495052896471300e-06  2.9665396717098355e-06 -2.6591552593032000e-04 -1.3298131864254906e-06  3.0252785036131376e-06 -2.7091104705057381e-04 -1.3064551960618268e-06  3.0821109692485313e-06 -2.7587678824995200e-04 -1.2921347227974710e-06  3.1337247403789749e-06 -2.8080907566787212e-04 -1.2770170222563672e-06  3.1806998246297221e-06 -2.8573814201467162e-04 -1.2598045778054940e-06  3.2325103730673415e-06 -2.9062712562188530e-04 -1.2521325078127625e-06  3.2804645295758174e-06 -2.9549341892483051e-04 -1.2340517589297786e-06  3.3354394729603087e-06 -3.0027136541674923e-04 -1.2257617871358511e-06  3.3842747696471635e-06 -3.0503662725421137e-04 -1.2146672126800864e-06  3.4336512453053765e-06 -3.0976394485843076e-04 -1.2007146857308048e-06  3.4856821211825519e-06 -3.1443756261329968e-04 -1.1861407226498160e-06  3.5315668531271682e-06 -3.1908213414930738e-04 -1.1732671472694473e-06  3.5869557701975607e-06 -3.2367910217560142e-04 -1.1564682833086089e-06  3.6316200372157273e-06 -3.2825882600265955e-04 -1.1463386520430591e-06  3.6813545598013550e-06 -3.3279335423284435e-04 -1.1396516547735660e-06  3.7289931210973674e-06 -3.3731885697268604e-04 -1.1278099427848411e-06  3.7777350538735229e-06 -3.4179470163545311e-04 -1.1130718007175483e-06  3.8261064743809015e-06 -3.4625706342149699e-04 -1.1024235370483611e-06  3.8709524111686808e-06 -3.5068599457164753e-04 -1.0967705192372793e-06  3.9189777527053310e-06 -3.5510569632162155e-04 -1.0925860368319997e-06  3.9666143629851608e-06 -3.5948651987989430e-04 -1.0854947381505870e-06  4.0142598622431816e-06 -3.6384493728171036e-04 -1.0798030915160700e-06  4.0596745046546566e-06 -3.6820107587704040e-04 -1.0742035364705920e-06  4.1058327504738787e-06 -3.7254448650987063e-04 -1.0685970540067980e-06  4.1517037115067663e-06 -3.7687813388189714e-04 -1.0629974246364671e-06  4.1942285296437400e-06 -3.8119795721776523e-04 -1.0614936699628390e-06  4.2370182568657968e-06 -3.8551449556128628e-04 -1.0576819533179843e-06  4.2821157349876266e-06 -3.8980954424241130e-04 -1.0548027495298843e-06  4.3281688728894973e-06 -3.9409311237203457e-04 -1.0516383456092000e-06  4.3725615374086002e-06 -3.9837560844253005e-04 -1.0506429315392315e-06  4.4158609560886799e-06 -4.0265672620327247e-04 -1.0501952585473509e-06  4.4610696796755115e-06 -4.0692947343209474e-04 -1.0483152367949823e-06  4.5053460049754994e-06 -4.1120289327306061e-04 -1.0482826946966229e-06  4.5485691322447055e-06 -4.1547951179420739e-04 -1.0477357664116617e-06  4.5919855593428002e-06 -4.1975685835480745e-04 -1.0477422068908785e-06  4.6355387892538362e-06 -4.2403354643629209e-04 -1.0482654195855446e-06  4.6788245865309389e-06 -4.2831330504699623e-04 -1.0485818068391368e-06  4.7228208194862826e-06 -4.3259393127024706e-04 -1.0496238264662111e-06  4.7665585413609772e-06 -4.3687438780452278e-04 -1.0499406064529350e-06  4.8098117732713694e-06 -4.4115934712752236e-04 -1.0496444516066804e-06  4.7750805263752747e-06 -4.4080619066732873e-04 -2.5855747088385961e-06  4.7361605292280424e-06 -4.4093027331561550e-04 -3.9148113673467495e-06  4.7133513381372176e-06 -4.4105888165995363e-04 -4.7001095498338530e-06  4.6961555639343026e-06 -4.4118886478453355e-04 -5.2971067754077813e-06  4.6824487182992374e-06 -4.4131981440562857e-04 -5.7675631852035956e-06  4.6708495855962545e-06 -4.4145158085864979e-04 -6.1526866502032600e-06  4.6609176347830141e-06 -4.4158427795283443e-04 -6.4793459732589047e-06  4.6528075588862364e-06 -4.4171803830115913e-04 -6.7324588817442173e-06  4.6464342292430879e-06 -4.4185257673128692e-04 -6.9322120597437560e-06  4.6409370953813803e-06 -4.4198800361804281e-04 -7.0856901925338753e-06  4.6367468737369366e-06 -4.4212445175578080e-04 -7.1962213232893424e-06  4.6335651100611726e-06 -4.4226163303388909e-04 -7.2737099760884092e-06  4.6316004503480844e-06 -4.4239968782132469e-04 -7.31203