<?xml version="1.0"?>
<VTKFile type="UnstructuredGrid"  version="0.1"  >
<UnstructuredGrid>
<Piece  NumberOfPoints="10958" NumberOfCells="41820">
<Points>
<DataArray  type="Float64"  NumberOfComponents="3"  format="ascii">1 0.04955 0  3.483770450905253e-06 0.04864772283650545 0  3.483770450905253e-06 0.04864772283650545 2.95  1 0.04955 2.95  0.9705745651584323 0.0546328692740541 0  0.9410403409854562 0.05904933268918263 0  0.9114506936029688 0.06307764259166145 0  0.8818365365778597 0.06692205633990718 0  0.852195425756178 0.07055529100758898 0  0.8225213484314672 0.07390813590379837 0  0.7928382076274137 0.07717791230068967 0  0.7631311412584285 0.08022519712851128 0  0.7333970986343074 0.08299595685799818 0  0.7036468593402103 0.08558339900696151 0  0.6738808305098906 0.08798485813956464 0  0.6440919092681797 0.09008334865923617 0  0.6142870835549664 0.09194561288677774 0  0.5844675933514397 0.09355367701932085 0  0.5546335832429207 0.09486496269114339 0  0.5247876530181904 0.095868659884793 0  0.4949363523436856 0.09668736484019783 0  0.4650802095563029 0.09731740696399105 0  0.4352195800941197 0.09768943189876603 0  0.405357042743103 0.09780828360274334 0  0.3754942534896675 0.09784351677757946 0  0.3456322298379585 0.09760772238205492 0  0.3157719755355017 0.09723970101506153 0  0.2859142869264596 0.09668561931752166 0  0.2560638915081948 0.09582390318294828 0  0.2262236143831659 0.09466390431188013 0  0.1964020995566796 0.09309886371899376 0  0.1665963941161298 0.09125714074218327 0  0.1368197180220126 0.08899319787719009 0  0.1070946678970156 0.08612945256268216 0  0.07746305623222323 0.08244010579101241 0  0.04805012948181673 0.07731042839253653 0  0.01932358256457366 0.06928107812002522 0  3.483770450905253e-06 0.04864772283650545 0.02979797979797999  3.483770450905253e-06 0.04864772283650545 0.05959595959595966  3.483770450905253e-06 0.04864772283650545 0.08939393939393965  3.483770450905253e-06 0.04864772283650545 0.1191919191919193  3.483770450905253e-06 0.04864772283650545 0.1489898989898993  3.483770450905253e-06 0.04864772283650545 0.178787878787879  3.483770450905253e-06 0.04864772283650545 0.2085858585858589  3.483770450905253e-06 0.04864772283650545 0.2383838383838386  3.483770450905253e-06 0.04864772283650545 0.2681818181818186  3.483770450905253e-06 0.04864772283650545 0.2979797979797986  3.483770450905253e-06 0.04864772283650545 0.3277777777777782  3.483770450905253e-06 0.04864772283650545 0.3575757575757582  3.483770450905253e-06 0.04864772283650545 0.3873737373737379  3.483770450905253e-06 0.04864772283650545 0.4171717171717179  3.483770450905253e-06 0.04864772283650545 0.4469696969696979  3.483770450905253e-06 0.04864772283650545 0.4767676767676775  3.483770450905253e-06 0.04864772283650545 0.5065656565656572  3.483770450905253e-06 0.04864772283650545 0.5363636363636372  3.483770450905253e-06 0.04864772283650545 0.5661616161616169  3.483770450905254e-06 0.04864772283650545 0.5959595959595969  3.483770450905253e-06 0.04864772283650545 0.6257575757575765  3.483770450905254e-06 0.04864772283650545 0.6555555555555564  3.483770450905253e-06 0.04864772283650545 0.6853535353535362  3.483770450905253e-06 0.04864772283650545 0.7151515151515158  3.483770450905253e-06 0.04864772283650545 0.7449494949494958  3.483770450905253e-06 0.04864772283650545 0.7747474747474755  3.483770450905253e-06 0.04864772283650545 0.8045454545454552  3.483770450905253e-06 0.04864772283650545 0.8343434343434351  3.483770450905253e-06 0.04864772283650545 0.8641414141414151  3.483770450905253e-06 0.04864772283650545 0.8939393939393945  3.483770450905254e-06 0.04864772283650545 0.9237373737373745  3.483770450905253e-06 0.04864772283650545 0.9535353535353545  3.483770450905254e-06 0.04864772283650545 0.9833333333333341  3.483770450905253e-06 0.04864772283650545 1.013131313131314  3.483770450905254e-06 0.04864772283650545 1.042929292929294  3.483770450905253e-06 0.04864772283650545 1.072727272727274  3.483770450905254e-06 0.04864772283650545 1.102525252525254  3.483770450905253e-06 0.04864772283650545 1.132323232323234  3.483770450905254e-06 0.04864772283650545 1.162121212121214  3.483770450905253e-06 0.04864772283650545 1.191919191919194  3.483770450905254e-06 0.04864772283650545 1.221717171717174  3.483770450905253e-06 0.04864772283650545 1.251515151515153  3.483770450905254e-06 0.04864772283650545 1.281313131313133  3.483770450905253e-06 0.04864772283650545 1.311111111111113  3.483770450905253e-06 0.04864772283650545 1.340909090909093  3.483770450905253e-06 0.04864772283650545 1.370707070707073  3.483770450905253e-06 0.04864772283650545 1.400505050505053  3.483770450905253e-06 0.04864772283650545 1.430303030303033  3.483770450905253e-06 0.04864772283650545 1.460101010101013  3.483770450905253e-06 0.04864772283650545 1.489898989898993  3.483770450905253e-06 0.04864772283650545 1.519696969696973  3.483770450905253e-06 0.04864772283650545 1.549494949494953  3.483770450905253e-06 0.04864772283650545 1.579292929292933  3.483770450905253e-06 0.04864772283650545 1.609090909090913  3.483770450905253e-06 0.04864772283650545 1.638888888888893  3.483770450905254e-06 0.04864772283650545 1.668686868686872  3.483770450905253e-06 0.04864772283650545 1.698484848484852  3.483770450905254e-06 0.04864772283650545 1.728282828282832  3.483770450905253e-06 0.04864772283650545 1.758080808080812  3.483770450905254e-06 0.04864772283650545 1.787878787878792  3.483770450905253e-06 0.04864772283650545 1.817676767676772  3.483770450905254e-06 0.04864772283650545 1.847474747474752  3.483770450905253e-06 0.04864772283650545 1.877272727272732  3.483770450905254e-06 0.04864772283650545 1.907070707070712  3.483770450905253e-06 0.04864772283650545 1.936868686868691  3.483770450905253e-06 0.04864772283650545 1.966666666666671  3.483770450905253e-06 0.04864772283650545 1.996464646464651  3.483770450905253e-06 0.04864772283650545 2.02626262626263  3.483770450905253e-06 0.04864772283650545 2.056060606060611  3.483770450905253e-06 0.04864772283650545 2.08585858585859  3.483770450905254e-06 0.04864772283650545 2.11565656565657  3.483770450905253e-06 0.04864772283650545 2.14545454545455  3.483770450905253e-06 0.04864772283650545 2.175252525252529  3.483770450905253e-06 0.04864772283650545 2.205050505050508  3.483770450905253e-06 0.04864772283650545 2.234848484848488  3.483770450905253e-06 0.04864772283650545 2.264646464646468  3.483770450905253e-06 0.04864772283650545 2.294444444444448  3.483770450905253e-06 0.04864772283650545 2.324242424242427  3.483770450905253e-06 0.04864772283650545 2.354040404040407  3.483770450905253e-06 0.04864772283650545 2.383838383838387  3.483770450905254e-06 0.04864772283650545 2.413636363636366  3.483770450905253e-06 0.04864772283650545 2.443434343434346  3.483770450905253e-06 0.04864772283650545 2.473232323232326  3.483770450905253e-06 0.04864772283650545 2.503030303030305  3.483770450905253e-06 0.04864772283650545 2.532828282828285  3.483770450905253e-06 0.04864772283650545 2.562626262626264  3.483770450905253e-06 0.04864772283650545 2.592424242424244  3.483770450905254e-06 0.04864772283650545 2.622222222222224  3.483770450905253e-06 0.04864772283650545 2.652020202020203  3.483770450905253e-06 0.04864772283650545 2.681818181818183  3.483770450905253e-06 0.04864772283650545 2.711616161616163  3.483770450905253e-06 0.04864772283650545 2.741414141414142  3.483770450905254e-06 0.04864772283650545 2.771212121212122  3.483770450905253e-06 0.04864772283650545 2.801010101010102  3.483770450905253e-06 0.04864772283650545 2.830808080808081  3.483770450905253e-06 0.04864772283650545 2.860606060606061  3.483770450905253e-06 0.04864772283650545 2.890404040404041  3.483770450905253e-06 0.04864772283650545 2.92020202020202  0.9705745651584323 0.0546328692740541 2.95  0.9410403409854562 0.05904933268918263 2.95  0.9114506936029688 0.06307764259166145 2.95  0.8818365365778597 0.06692205633990718 2.95  0.852195425756178 0.07055529100758898 2.95  0.8225213484314672 0.07390813590379837 2.95  0.7928382076274137 0.07717791230068967 2.95  0.7631311412584285 0.08022519712851128 2.95  0.7333970986343074 0.08299595685799818 2.95  0.7036468593402103 0.08558339900696151 2.95  0.6738808305098906 0.08798485813956464 2.95  0.6440919092681797 0.09008334865923617 2.95  0.6142870835549664 0.09194561288677774 2.95  0.5844675933514397 0.09355367701932085 2.95  0.5546335832429207 0.09486496269114339 2.95  0.5247876530181904 0.095868659884793 2.95  0.4949363523436856 0.09668736484019783 2.95  0.4650802095563029 0.09731740696399105 2.95  0.4352195800941197 0.09768943189876603 2.95  0.405357042743103 0.09780828360274334 2.95  0.3754942534896675 0.09784351677757946 2.95  0.3456322298379585 0.09760772238205492 2.95  0.3157719755355017 0.09723970101506153 2.95  0.2859142869264596 0.09668561931752166 2.95  0.2560638915081948 0.09582390318294828 2.95  0.2262236143831659 0.09466390431188013 2.95  0.1964020995566796 0.09309886371899376 2.95  0.1665963941161298 0.09125714074218327 2.95  0.1368197180220126 0.08899319787719009 2.95  0.1070946678970156 0.08612945256268216 2.95  0.07746305623222323 0.08244010579101241 2.95  0.04805012948181673 0.07731042839253653 2.95  0.01932358256457366 0.06928107812002522 2.95  1 0.04955 0.02979797979797999  1 0.04955 0.05959595959595966  1 0.04955 0.08939393939393965  1 0.04955 0.1191919191919193  1 0.04955 0.1489898989898993  1 0.04955 0.178787878787879  1 0.04955 0.2085858585858589  1 0.04955 0.2383838383838386  1 0.04955 0.2681818181818186  1 0.04955 0.2979797979797986  1 0.04955 0.3277777777777782  1 0.04955 0.3575757575757582  1 0.04955 0.3873737373737379  1 0.04955 0.4171717171717179  1 0.04955 0.4469696969696979  1 0.04955 0.4767676767676775  1 0.04955 0.5065656565656572  1 0.04955 0.5363636363636372  1 0.04955 0.5661616161616169  1 0.04955 0.5959595959595969  1 0.04955 0.6257575757575765  1 0.04955 0.6555555555555564  1 0.04955 0.6853535353535362  1 0.04955 0.7151515151515158  1 0.04955 0.7449494949494958  1 0.04955 0.7747474747474755 
[...]
<PointData  Vectors="Displacement"> 
<DataArray  type="Float64"  Name="Displacement"  NumberOfComponents="3" format="ascii">0.0000000000000000e+00 0.0000000000000000e+00 0.0000000000000000e+00  0.0000000000000000e+00 0.0000000000000000e+00 0.0000000000000000e+00  1.0136583644542215e-04 -7.6811869888053982e-03 1.1095196420015289e-05  1.0150218703439721e-04 -7.7126615853661748e-03 -3.2638141467582157e-05  0.0000000000000000e+00 0.0000000000000000e+00 0.0000000000000000e+00  0.0000000000000000e+00 0.0000000000000000e+00 0.0000000000000000e+00  0.0000000000000000e+00 0.0000000000000000e+00 0.0000000000000000e+00  0.0000000000000000e+00 0.0000000000000000e+00 0.0000000000000000e+00  0.0000000000000000e+00 0.0000000000000000e+00 0.0000000000000000e+00  0.0000000000000000e+00 0.0000000000000000e+00 0.0000000000000000e+00  0.0000000000000000e+00 0.0000000000000000e+00 0.0000000000000000e+00  0.0000000000000000e+00 0.0000000000000000e+00 0.0000000000000000e+00  0.0000000000000000e+00 0.0000000000000000e+00 0.0000000000000000e+00  0.0000000000000000e+00 0.0000000000000000e+00 0.0000000000000000e+00  0.0000000000000000e+00 0.0000000000000000e+00 0.0000000000000000e+00  0.0000000000000000e+00 0.0000000000000000e+00 0.0000000000000000e+00  0.0000000000000000e+00 0.0000000000000000e+00 0.0000000000000000e+00  0.0000000000000000e+00 0.0000000000000000e+00 0.0000000000000000e+00  0.0000000000000000e+00 0.0000000000000000e+00 0.0000000000000000e+00  0.0000000000000000e+00 0.0000000000000000e+00 0.0000000000000000e+00  0.0000000000000000e+00 0.0000000000000000e+00 0.0000000000000000e+00  0.0000000000000000e+00 0.0000000000000000e+00 0.0000000000000000e+00  0.0000000000000000e+00 0.0000000000000000e+00 0.0000000000000000e+00  0.0000000000000000e+00 0.0000000000000000e+00 0.0000000000000000e+00  0.0000000000000000e+00 0.0000000000000000e+00 0.0000000000000000e+00  0.0000000000000000e+00 0.0000000000000000e+00 0.0000000000000000e+00  0.0000000000000000e+00 0.0000000000000000e+00 0.0000000000000000e+00  0.0000000000000000e+00 0.0000000000000000e+00 0.0000000000000000e+00  0.0000000000000000e+00 0.0000000000000000e+00 0.0000000000000000e+00  0.0000000000000000e+00 0.0000000000000000e+00 0.0000000000000000e+00  0.0000000000000000e+00 0.0000000000000000e+00 0.0000000000000000e+00  0.0000000000000000e+00 0.0000000000000000e+00 0.0000000000000000e+00  0.0000000000000000e+00 0.0000000000000000e+00 0.0000000000000000e+00  0.0000000000000000e+00 0.0000000000000000e+00 0.0000000000000000e+00  0.0000000000000000e+00 0.0000000000000000e+00 0.0000000000000000e+00  0.0000000000000000e+00 0.0000000000000000e+00 0.0000000000000000e+00  0.0000000000000000e+00 0.0000000000000000e+00 0.0000000000000000e+00  -6.3568818065240853e-08 1.4611372155833970e-06 1.8469307199206094e-07  1.6863037092729217e-07 8.1856051589861451e-07 7.6663026142593822e-07  4.2927610511438550e-07 -2.0234376623430827e-06 1.4347480827666168e-06  7.1526452071054280e-07 -7.6913783408189754e-06 1.6383904609007477e-06  6.8778180613592102e-07 -1.6140912337135192e-05 1.8940939791636377e-06  1.0529627529029171e-06 -2.7639740815928205e-05 2.0779265499617226e-06  1.2282713997711166e-06 -4.2447800908686108e-05 2.1271582971461250e-06  1.3930626278847595e-06 -5.9684044090399334e-05 2.7397900707203700e-06  1.7719052335344934e-06 -7.9790523611518747e-05 2.9820984414656500e-06  1.9533774697574966e-06 -1.0301217284589371e-04 3.1772511767655289e-06  2.4832563264390623e-06 -1.2873387054041980e-04 3.4751081036231704e-06  3.0445067785737154e-06 -1.5711974486741113e-04 3.5589659360000130e-06  3.2379403231268370e-06 -1.8849036112536806e-04 3.8487591048982278e-06  3.7585438492808933e-06 -2.2207112241782456e-04 3.4497602653372091e-06  4.0159408981761107e-06 -2.5816304983219707e-04 4.0835890137458506e-06  4.7118617373643294e-06 -2.9694885980403293e-04 4.0139187380799301e-06  5.2010440903780218e-06 -3.3740227487433889e-04 4.3234968682954479e-06  5.5585885903143220e-06 -3.8129674740507001e-04 4.6226135772082837e-06  6.3878786335822938e-06 -4.2723558267533944e-04 4.9524869668176214e-06  6.9356000032818039e-06 -4.7522639661210295e-04 4.5993507973234011e-06  7.5538537314182807e-06 -5.2481744202849162e-04 5.3002076638886282e-06  8.1513717502298498e-06 -5.7642413691393773e-04 5.9504436955802053e-06  9.2765734549703930e-06 -6.3020302797144577e-04 5.9974313653726230e-06  9.7189612918640752e-06 -6.8570157881150701e-04 6.1310784649585951e-06  1.0750571738225428e-05 -7.4294195247631733e-04 6.2774341237082894e-06  1.1643155429588420e-05 -8.0199307537176436e-04 5.9464368036861095e-06  1.2126110229172355e-05 -8.6345964414471284e-04 5.9003326852341461e-06  1.2770993917442901e-05 -9.2643928189351194e-04 6.4296276704573284e-06  1.3638401956584212e-05 -9.9159236554332642e-04 6.7731137142897666e-06  1.4634416293200521e-05 -1.0581951996167576e-03 7.0399594664447512e-06  1.5454759220277753e-05 -1.1261684818529931e-03 7.2635275193568427e-06  1.6413645431562583e-05 -1.1956929891301011e-03 7.4655598561357262e-06  1.7439043671100770e-05 -1.2669433098124912e-03 7.5294702057653602e-06  1.8418898421940832e-05 -1.3398142146657461e-03 7.3177747529009961e-06  1.9169003092343976e-05 -1.4136294767660234e-03 7.4485421588692834e-06  2.0046078481511536e-05 -1.4889957722877525e-03 7.9545608468947019e-06  2.1284000751398020e-05 -1.5658418900051680e-03 8.0791318513892598e-06  2.2325736614093554e-05 -1.6440489260565107e-03 8.0919634365606068e-06  2.3357733746348033e-05 -1.7235443776704078e-03 7.9285176973441111e-06  2.4226221090141710e-05 -1.8038418968130995e-03 8.2360707293001891e-06  2.5307910098774798e-05 -1.8854484694445213e-03 8.4733389219457672e-06  2.6495506840051763e-05 -1.9686829994026386e-03 8.7195547678184323e-06  2.7440654426612451e-05 -2.0530163501729323e-03 8.8983391018166984e-06  2.8732429228566558e-05 -2.1384255672730439e-03 8.9893913893887651e-06  2.9891447938655229e-05 -2.2249736709470777e-03 9.0196655100902952e-06  3.0978592613166154e-05 -2.3125476188205372e-03 9.0388905841903924e-06  3.2166238996040091e-05 -2.4009258896496096e-03 8.8617218471499354e-06  3.3277797103496557e-05 -2.4902980072190046e-03 9.0715482717587126e-06  3.4376949646260247e-05 -2.5804499414620102e-03 9.1729994193500700e-06  3.5629150880671720e-05 -2.6715982963791533e-03 9.3286856853820557e-06  3.6791274146352985e-05 -2.7637879855785218e-03 9.6306230441451009e-06  3.8033994895180339e-05 -2.8566727901962060e-03 9.7575488624982228e-06  3.9370362185875350e-05 -2.9504397684713764e-03 9.5838496323900791e-06  4.0459251421813036e-05 -3.0447850184402974e-03 9.6698502180820055e-06  4.1804328615369903e-05 -3.1399468212686974e-03 9.6895280077883757e-06  4.2960218813230856e-05 -3.2358107489236310e-03 9.7786135302339569e-06  4.4206644643375596e-05 -3.3321858878510866e-03 9.9029109685114652e-06  4.5432367589504267e-05 -3.4292480850587020e-03 1.0172997134690884e-05  4.6814070925071672e-05 -3.5268914609029455e-03 1.0244069818670719e-05  4.8137781518984534e-05 -3.6250491488173556e-03 1.0117116950693057e-05  4.9320402838824773e-05 -3.7237795981704736e-03 1.0171517309053036e-05  5.0571307204180505e-05 -3.8231377137435091e-03 1.0435587146964162e-05  5.2015030772704456e-05 -3.9230412327291575e-03 1.0436676945385684e-05  5.3356356313486917e-05 -4.0234424966958896e-03 1.0366986367388444e-05  5.4613797861852765e-05 -4.1242806671531931e-03 1.0384562396465517e-05  5.5920134043837045e-05 -4.2254773567830155e-03 1.0564949433623186e-05  5.7221875195308308e-05 -4.3271008142982603e-03 1.0666650352897632e-05  5.8636409168435779e-05 -4.4290051403382390e-03 1.0684130060607161e-05  5.9926366810398172e-05 -4.5313436713993998e-03 1.0732373829886454e-05  6.1339051657436131e-05 -4.6340026224222890e-03 1.0752262867418403e-05  6.2709030689577248e-05 -4.7369928851353493e-03 1.0682385387146588e-05  6.4016050016559340e-05 -4.8403459924380495e-03 1.0704878345889448e-05  6.5355857807688177e-05 -4.9439095274680907e-03 1.0836681161902256e-05  6.6699118517476641e-05 -5.0477129136876032e-03 1.0873564144302417e-05  6.8097693683650623e-05 -5.1518022850236831e-03 1.0912938360897358e-05  6.9466766696716547e-05 -5.2560636869594711e-03 1.0909322531534697e-05  7.0834767936138202e-05 -5.3605141766943244e-03 1.0928582613615744e-05  7.2232529568561389e-05 -5.4651621031148170e-03 1.0908313047458544e-05  7.3602646123008074e-05 -5.5699728248722160e-03 1.0930819796178533e-05  7.4965247120804869e-05 -5.6749413054738816e-03 1.0970746580057006e-05  7.6330249855285234e-05 -5.7800030276812780e-03 1.1016457105159858e-05  7.7738616382165191e-05 -5.8852108865815062e-03 1.1034582697432675e-05  7.9109015991303690e-05 -5.9905002139259214e-03 1.1038481029059690e-05  8.0505599272853010e-05 -6.0958840550395105e-03 1.1046501895025573e-05  8.1896599025950198e-05 -6.2013412793755981e-03 1.1044791840872441e-05  8.3291906465037904e-05 -6.3068745298835724e-03 1.1041335870965641e-05  8.4673157419415198e-05 -6.4124607417806942e-03 1.1061502776574768e-05  8.6053536619512454e-05 -6.5180981624252832e-03 1.1076819144586495e-05  8.7452274845827550e-05 -6.6237761329833228e-03 1.1079900574873847e-05  8.8848797158939255e-05 -6.7294759000842020e-03 1.1077710088311174e-05  9.0240677040719674e-05 -6.8352009063997370e-03 1.1083929476986540e-05  9.1625486922504180e-05 -6.9409387927076779e-03 1.1092628550023459e-05  9.3016612377335898e-05 -7.0466895149026510e-03 1.1094961887308791e-05  9.4410800874405380e-05 -7.1524467708458913e-03 1.1095600149801766e-05  9.5803676688818102e-05 -7.2582010611516009e-03 1.1095879272635663e-05  9.7193355283043263e-05 -7.3639538459900405e-03 1.1094685451332083e-05  9.8586282627375219e-05 -7.4697035001455893e-03 1.1094994576132034e-05  9.9976289760168014e-05 -7.5754480894198312e-03 1.1095063603966237e-05  1.0164001874195282e-04 -7.7118572212991707e-03 -1.3189407995244553e-05  1.0176414246452891e-04 -7.7110297804786915e-03 3.8927888365885252e-06  1.0188266366589113e-04 -7.7101747239556760e-03 1.9596909850630120e-05  1.0199621188518528e-04 -7.7093006017051576e-03 3.4648183860881616e-05  1.0210221906844067e-04 -7.7084215283910610e-03 4.8947773887947178e-05  1.0219898919266121e-04 -7.7075459578392781e-03 6.2254204603897563e-05  1.0229344330451810e-04 -7.7066683289043958e-03 7.5262552957346550e-05  1.0238327618996170e-04 -7.7057900908849165e-03 8.7479660267605287e-05  1.0246349044029352e-04 -7.7049099499303117e-03 9.8715933677681210e-05  1.0254217466059555e-04 -7.7040282879356110e-03 1.0929406937466011e-04  1.0261304273446897e-04 -7.7031352369793917e-03 1.1921406148416161e-04  1.0267842854830932e-04 -7.7022361377565001e-03 1.2805297646514914e-04  1.0273566527854307e-04 -7.7013283017690788e-03 1.3605746401825394e-04  1.0278826608105363e-04 -7.7004226927967750e-03 1.4315605321712973e-04  1.0283092673748434e-04 -7.6995056291277149e-03 1.4920470752947522e-04  1.0286946906519938e-04 -7.6985847683520370e-03 1.5415693948341188e-04  1.0290046988308124e-04 -7.6976546185477885e-03 1.5845294172491374e-04  1.0292735962921982e-04 -7.6967165122977877e-03 1.6207999915130770e-04  1.0294846552068368e-04 -7.6957690982936179e-03 1.6478930222062722e-04  1.0296136273747820e-04 -7.6948154303366290e-03 1.6660144794702602e-04  1.0297083688353800e-04 -7.6938567528742714e-03 1.6811928046120734e-04  1.0297249082269231e-04 -7.6928894013108496e-03 1.6867580447521262e-04  1.0297095899863206e-04 -7.6919130303385189e-03 1.6876197286950229e-04  1.0296497230788434e-04 -7.6909286219838079e-03 1.6818914000035491e-04  1.0294674469938141e-04 -7.6899386388587388e-03 1.6652637523292975e-04  1.0291751581093593e-04 -7.6889410062768908e-03 1.6380476375162805e-04  1.0287442138345896e-04 -7.6879366407978629e-03 1.5964652011590455e-04  1.0282140561677081e-04 -7.6869258683239031e-03 1.5450462626398484e-04  1.0275089925670730e-04 -7.6859092187790707e-03 1.4786486394266298e-04  1.0265745032770735e-04 -7.6848884371455671e-03 1.3909322794895097e-04  1.0253326272847921e-04 -7.6838693648649389e-03 1.2738720338687756e-04  1.0235907467372979e-04 -7.6828520481593780e-03 1.1056122802861636e-04  1.0208166873294891e-04 -7.6818570751414324e-03 8.3410597588109818e-05  -3.4730746053787593e-07 8.6784375080774435e-07 -3.4896153168111022e-08  -6.3361052838421915e-07 4.1839691379436525e-07 -2.8443890664948218e-07  -7.3640656790303342e-07 -7.8119053129543322e-07 -9.4767237116703573e-07  -5.4474923978720579e-07 -6.0451058232782677e-06 -2.0941199076865421e-06  2.4696708301172013e-08 -1.2032961488295178e-05 -3.1475898213580001e-06  2.5392807164031253e-07 -1.8880207633934530e-05 -3.4803263130190616e-06  4.7391665384159318e-07 -3.2561619978740047e-05 -3.9691550130288459e-06  7.8911074438186945e-07 -4.7041360597046681e-05 -4.5238023940893796e-06  6.0178786071207583e-07 -6.3931997159183141e-05 -4.9959399131051407e-06  9.8967790493958329e-07 -8.3486508768059860e-05 -5.9965840961819395e-06  1.9209955258415303e-06 -1.0651627180313803e-04 -7.3262740252660774e-06  2.8305684686062867e-06 -1.3062924849732301e-04 -8.6853693226962884e-06  3.8802448034307007e-06 -1.5598541848299219e-04 -9.9803239982443656e-06  3.7809982231608510e-06 -1.8903529969287083e-04 -1.0148761263190958e-05  4.4726948102430747e-06 -2.2428655361084903e-04 -1.0745845714501208e-05  4.8506423736367766e-06 -2.5984763981418835e-04 -1.1672892591639340e-05  5.4233560724816927e-06 -2.9944321662875198e-04 -1.2508219210999633e-05  5.9207687293911663e-06 -3.4264402950253840e-04 -1.3861482976826486e-05  6.4233570287050945e-06 -3.8902379196064773e-04 -1.5337435894901489e-05  7.2439376811344021e-06 -4.3847394378600002e-04 -1.5695449859120636e-05  7.5606212661597199e-06 -4.8993584487003932e-04 -1.6012975722125605e-05  8.1995891781444951e-06 -5.4219368672051016e-04 -1.6600576885692950e-05  8.9738071715819525e-06 -5.9593567381115240e-04 -1.7019493840147785e-05  9.6152412820149149e-06 -6.5199266253277832e-04 -1.7704643297538142e-05  1.0506156275231939e-05 -7.0990984981760506e-04 -1.8501515533102788e-05  1.1139668915763523e-05 -7.6980146086851043e-04 -1.8567508580043063e-05  1.1956002053583242e-05 -8.3220221802136050e-04 -1.9829068719172780e-05  1.2639388079150413e-05 -8.9755600491292736e-04 -2.0390695979987532e-05  1.3487591226319714e-05 -9.6380706768832035e-04 -2.1008243896085748e-05  1.4674836570770282e-05 -1.0318999054232305e-03 -2.1749353339865309e-05  1.5654965579149748e-05 -1.1004114538688704e-03 -2.2112446838663982e-05  1.6514327771224867e-05 -1.1703561502417383e-03 -2.2192686376776969e-05  1.7524660302424185e-05 -1.2420863602527065e-03 -2.2830364786519042e-05  1.8389659759180312e-05 -1.3156834836054426e-03 -2.3394423370268137e-05  1.9238457845770022e-05 -1.3912715030578587e-03 -2.3406658731449304e-05  2.0317679820661088e-05 -1.4674411995154893e-03 -2.4149392759685223e-05  2.1473318254734960e-05 -1.5440074361355034e-03 -2.4230384526359010e-05  2.2609361228027413e-05 -1.6233446068704455e-03 -2.4668175599063192e-05  2.3554432575226834e-05 -1.7039602925838426e-03 -2.5266083963475480e-05  2.4690608176938954e-05 -1.7855719032421212e-03 -2.5728454080272601e-05  2.5690152056106689e-05 -1.8698670141063327e-03 -2.6260877079859339e-05  2.6752078377303261e-05 -1.9549100661476328e-03 -2.6542043485444440e-05  2.7866016660037791e-05 -2.0408620940877377e-03 -2.6958359671145448e-05  2.8990254566586085e-05 -2.1272267873181793e-03 -2.7069722270270015e-05  3.0135447549341786e-05 -2.2152346024742731e-03 -2.7197465071615314e-05  3.1290161995624035e-05 -2.3037663476184584e-03 -2.7533061862184716e-05  3.2317145584569752e-05 -2.3936418345680095e-03 -2.7762601755585197e-05  3.3493800960475929e-05 -2.4838720509303067e-03 -2.7955229892626738e-05  3.4578637615090711e-05 -2.5749494412031036e-03 -2.8368507635652355e-05  3.5933873824618664e-05 -2.6674126664762974e-03 -2.8659717601677941e-05  3.7123836916387785e-05 -2.7606300953276551e-03 -2.8883183709019718e-05  3.8263458294638922e-05 -2.8546252609485102e-03 -2.9287339415602699e-05  3.9479149139142875e-05 -2.9495149092423458e-03 -2.9571940923951077e-05  4.0725514723673915e-05 -3.0451938566243811e-03 -2.9604120472475308e-05  4.1915793948536982e-05 -3.1414918937641076e-03 -2.9893583162474239e-05  4.3178874654745080e-05 -3.2385996650151514e-03 -3.0120286005456737e-05  4.4526312303393107e-05 -3.3358903617966419e-03 -3.0288321203432933e-05  4.5737496781778250e-05 -3.4345290811496438e-03 -3.0473152570796154e-05  4.6931421384013134e-05 -3.5340446376890089e-03 -3.0632393716078532e-05  4.8152931969705066e-05 -3.6339334218758335e-03 -3.0880612146818508e-05  4.9425563295524309e-05 -3.7340932350777480e-03 -3.1029743924947100e-05  5.0754320741038461e-05 -3.8346982567139137e-03 -3.1162355727043590e-05  5.2123450980432369e-05 -3.9353297369232113e-03 -3.1297497926630370e-05  5.3453040777637456e-05 -4.0363654613272907e-03 -3.1348978162705652e-05  5.4800792669152346e-05 -4.1376428402165504e-03 -3.1503336580288969e-05  5.6100328628521878e-05 -4.2398316431981426e-03 -3.1581803132892650e-05  5.7456676245045442e-05 -4.3421063656386982e-03 -3.1667732673768674e-05  5.8797507526124933e-05 -4.4448403225114215e-03 -3.1781088823546526e-05  6.0109393593709487e-05 -4.5481406260443587e-03 -3.1906678963809020e-05  6.1476962863063402e-05 -4.6517390864015407e-03 -3.1986799117015861e-05  6.2742465361507077e-05 -4.7557896413768855e-03 -3.2130625289619208e-05  6.4140615181767417e-05 -4.8598100130173945e-03 -3.2193061360227617e-05  6.5495894912433135e-05 -4.9642141461713855e-03 -3.2237234870483044e-05  6.6855591957955455e-05 -5.0686747473786741e-03 -3.2311659615948291e-05  6.8193398553899914e-05 -5.1735779751025208e-03 -3.2401727734136438e-05  6.9547862008251945e-05 -5.2785458651934559e-03 -3.2467342770480822e-05  7.0929163193319818e-05 -5.3837375621058840e-03 -3.2484396490725312e-05  7.2289728891085318e-05 -5.4890016309365039e-03 -3.2503002340757502e-05  7.3657478696417930e-05 -5.5945066146621007e-03 -3.2543421753964377e-05  7.5027218629116599e-05 -5.7001281201058971e-03 -3.2572160501579738e-05  7.6409176183566183e-05 -5.8057618441169547e-03 -3.2595172497654156e-05  7.7785120371498605e-05 -5.9114974606351393e-03 -3.2627548689338991e-05  7.9167387108360865e-05 -6.0172608654575641e-03 -3.2656018618018586e-05  8.0571657240272756e-05 -6.1231183124428479e-03 -3.2650773798248215e-05  8.1971165792756428e-05 -6.2290127758179254e-03 -3.2658269105029240e-05  8.3347762045240902e-05 -6.3350040297921453e-03 -3.2662877522750841e-05  8.4728829430880050e-05 -6.4410327111185080e-03 -3.2675301956216021e-05  8.6121255058601461e-05 -6.5470463566744816e-03 -3.2675673381405359e-05  8.7522165131120630e-05 -6.6530640218210218e-03 -3.2672161930942079e-05  8.8906968631803475e-05 -6.7591312689774113e-03 -3.2677629076596843e-05  9.0300419933217593e-05 -6.8651550794414547e-03 -3.2665793968715013e-05  9.1703298943272290e-05 -6.9711354364985351e-03 -3.2665953234292430e-05  9.3102984184922487e-05 -7.0771070952997464e-03 -3.2661967021579740e-05  9.4501020652831288e-05 -7.1830792922541985e-03 -3.2653541172759987e-05  9.5902065226861243e-05 -7.2890199911044787e-03 -3.2648583080665114e-05  9.7296585163966149e-05 -7.3949511438428962e-03 -3.2638215075663654e-05  9.8693865492094468e-05 -7.5008837299621253e-03 -3.2634828361020111e-05  1.0009567640274341e-04 -7.6067758276091744e-03 -3.2637123194895901e-05  1.0068422496629382e-04 -7.6819110641063466e-03 -5.9592433086111083e-05  1.0037661202517177e-04 -7.6828975791290877e-03 -9.2509101434116984e-05  1.0020269349050126e-04 -7.6839137586715220e-03 -1.1206694910372357e-04  1.0007487573348339e-04 -7.6849333431784610e-03 -1.2699536580285505e-04  9.9980068112176599e-05 -7.6859520250360516e-03 -1.3882550773346576e-04  9.9910003135004772e-05 -7.6869675691721177e-03 -1.4854708864501802e-04  9.9854936356432179e-05 -7.6879774488996591e-03 -1.5683231932877960e-04  9.9820690373047944e-05 -7.6889803428274095e-03 -1.6332360999170181e-04  9.9798291766131948e-05 -7.6899777193697233e-03 -1.6850937530065127e-04  9.9791379590477520e-05 -7.6909680525561004e-03 -1.7255989923215648e-04  9.9794701386971113e-05 -7.6919499530608742e-03 -1.7555903339273288e-04  9.9805498795160351e-05 -7.6929255680519403e-03 -1.7776914064933261e-04  9.9825428489252069e-05 -7.6938935022151317e-03 -1.7901668818