<?xml version="1.0"?>
<VTKFile type="UnstructuredGrid"  version="0.1"  >
<UnstructuredGrid>
<Piece  NumberOfPoints="10958" NumberOfCells="41820">
<Points>
<DataArray  type="Float64"  NumberOfComponents="3"  format="ascii">1 0.04955 0  3.483770450905253e-06 0.04864772283650545 0  3.483770450905253e-06 0.04864772283650545 2.95  1 0.04955 2.95  0.9705745651584323 0.0546328692740541 0  0.9410403409854562 0.05904933268918263 0  0.9114506936029688 0.06307764259166145 0  0.8818365365778597 0.06692205633990718 0  0.852195425756178 0.07055529100758898 0  0.8225213484314672 0.07390813590379837 0  0.7928382076274137 0.07717791230068967 0  0.7631311412584285 0.08022519712851128 0  0.7333970986343074 0.08299595685799818 0  0.7036468593402103 0.08558339900696151 0  0.6738808305098906 0.08798485813956464 0  0.6440919092681797 0.09008334865923617 0  0.6142870835549664 0.09194561288677774 0  0.5844675933514397 0.09355367701932085 0  0.5546335832429207 0.09486496269114339 0  0.5247876530181904 0.095868659884793 0  0.4949363523436856 0.09668736484019783 0  0.4650802095563029 0.09731740696399105 0  0.4352195800941197 0.09768943189876603 0  0.405357042743103 0.09780828360274334 0  0.3754942534896675 0.09784351677757946 0  0.3456322298379585 0.09760772238205492 0  0.3157719755355017 0.09723970101506153 0  0.2859142869264596 0.09668561931752166 0  0.2560638915081948 0.09582390318294828 0  0.2262236143831659 0.09466390431188013 0  0.1964020995566796 0.09309886371899376 0  0.1665963941161298 0.09125714074218327 0  0.1368197180220126 0.08899319787719009 0  0.1070946678970156 0.08612945256268216 0  0.07746305623222323 0.08244010579101241 0  0.04805012948181673 0.07731042839253653 0  0.01932358256457366 0.06928107812002522 0  3.483770450905253e-06 0.04864772283650545 0.02979797979797999  3.483770450905253e-06 0.04864772283650545 0.05959595959595966  3.483770450905253e-06 0.04864772283650545 0.08939393939393965  3.483770450905253e-06 0.04864772283650545 0.1191919191919193  3.483770450905253e-06 0.04864772283650545 0.1489898989898993  3.483770450905253e-06 0.04864772283650545 0.178787878787879  3.483770450905253e-06 0.04864772283650545 0.2085858585858589  3.483770450905253e-06 0.04864772283650545 0.2383838383838386  3.483770450905253e-06 0.04864772283650545 0.2681818181818186  3.483770450905253e-06 0.04864772283650545 0.2979797979797986  3.483770450905253e-06 0.04864772283650545 0.3277777777777782  3.483770450905253e-06 0.04864772283650545 0.3575757575757582  3.483770450905253e-06 0.04864772283650545 0.3873737373737379  3.483770450905253e-06 0.04864772283650545 0.4171717171717179  3.483770450905253e-06 0.04864772283650545 0.4469696969696979  3.483770450905253e-06 0.04864772283650545 0.4767676767676775  3.483770450905253e-06 0.04864772283650545 0.5065656565656572  3.483770450905253e-06 0.04864772283650545 0.5363636363636372  3.483770450905253e-06 0.04864772283650545 0.5661616161616169  3.483770450905254e-06 0.04864772283650545 0.5959595959595969  3.483770450905253e-06 0.04864772283650545 0.6257575757575765  3.483770450905254e-06 0.04864772283650545 0.6555555555555564  3.483770450905253e-06 0.04864772283650545 0.6853535353535362  3.483770450905253e-06 0.04864772283650545 0.7151515151515158  3.483770450905253e-06 0.04864772283650545 0.7449494949494958  3.483770450905253e-06 0.04864772283650545 0.7747474747474755  3.483770450905253e-06 0.04864772283650545 0.8045454545454552  3.483770450905253e-06 0.04864772283650545 0.8343434343434351  3.483770450905253e-06 0.04864772283650545 0.8641414141414151  3.483770450905253e-06 0.04864772283650545 0.8939393939393945  3.483770450905254e-06 0.04864772283650545 0.9237373737373745  3.483770450905253e-06 0.04864772283650545 0.9535353535353545  3.483770450905254e-06 0.04864772283650545 0.9833333333333341  3.483770450905253e-06 0.04864772283650545 1.013131313131314  3.483770450905254e-06 0.04864772283650545 1.042929292929294  3.483770450905253e-06 0.04864772283650545 1.072727272727274  3.483770450905254e-06 0.04864772283650545 1.102525252525254  3.483770450905253e-06 0.04864772283650545 1.132323232323234  3.483770450905254e-06 0.04864772283650545 1.162121212121214  3.483770450905253e-06 0.04864772283650545 1.191919191919194  3.483770450905254e-06 0.04864772283650545 1.221717171717174  3.483770450905253e-06 0.04864772283650545 1.251515151515153  3.483770450905254e-06 0.04864772283650545 1.281313131313133  3.483770450905253e-06 0.04864772283650545 1.311111111111113  3.483770450905253e-06 0.04864772283650545 1.340909090909093  3.483770450905253e-06 0.04864772283650545 1.370707070707073  3.483770450905253e-06 0.04864772283650545 1.400505050505053  3.483770450905253e-06 0.04864772283650545 1.430303030303033  3.483770450905253e-06 0.04864772283650545 1.460101010101013  3.483770450905253e-06 0.04864772283650545 1.489898989898993  3.483770450905253e-06 0.04864772283650545 1.519696969696973  3.483770450905253e-06 0.04864772283650545 1.549494949494953  3.483770450905253e-06 0.04864772283650545 1.579292929292933  3.483770450905253e-06 0.04864772283650545 1.609090909090913  3.483770450905253e-06 0.04864772283650545 1.638888888888893  3.483770450905254e-06 0.04864772283650545 1.668686868686872  3.483770450905253e-06 0.04864772283650545 1.698484848484852  3.483770450905254e-06 0.04864772283650545 1.728282828282832  3.483770450905253e-06 0.04864772283650545 1.758080808080812  3.483770450905254e-06 0.04864772283650545 1.787878787878792  3.483770450905253e-06 0.04864772283650545 1.817676767676772  3.483770450905254e-06 0.04864772283650545 1.847474747474752  3.483770450905253e-06 0.04864772283650545 1.877272727272732  3.483770450905254e-06 0.04864772283650545 1.907070707070712  3.483770450905253e-06 0.04864772283650545 1.936868686868691  3.483770450905253e-06 0.04864772283650545 1.966666666666671  3.483770450905253e-06 0.04864772283650545 1.996464646464651  3.483770450905253e-06 0.04864772283650545 2.02626262626263  3.483770450905253e-06 0.04864772283650545 2.056060606060611  3.483770450905253e-06 0.04864772283650545 2.08585858585859  3.483770450905254e-06 0.04864772283650545 2.11565656565657  3.483770450905253e-06 0.04864772283650545 2.14545454545455  3.483770450905253e-06 0.04864772283650545 2.175252525252529  3.483770450905253e-06 0.04864772283650545 2.205050505050508  3.483770450905253e-06 0.04864772283650545 2.234848484848488  3.483770450905253e-06 0.04864772283650545 2.264646464646468  3.483770450905253e-06 0.04864772283650545 2.294444444444448  3.483770450905253e-06 0.04864772283650545 2.324242424242427  3.483770450905253e-06 0.04864772283650545 2.354040404040407  3.483770450905253e-06 0.04864772283650545 2.383838383838387  3.483770450905254e-06 0.04864772283650545 2.413636363636366  3.483770450905253e-06 0.04864772283650545 2.443434343434346  3.483770450905253e-06 0.04864772283650545 2.473232323232326  3.483770450905253e-06 0.04864772283650545 2.503030303030305  3.483770450905253e-06 0.04864772283650545 2.532828282828285  3.483770450905253e-06 0.04864772283650545 2.562626262626264  3.483770450905253e-06 0.04864772283650545 2.592424242424244  3.483770450905254e-06 0.04864772283650545 2.622222222222224  3.483770450905253e-06 0.04864772283650545 2.652020202020203  3.483770450905253e-06 0.04864772283650545 2.681818181818183  3.483770450905253e-06 0.04864772283650545 2.711616161616163  3.483770450905253e-06 0.04864772283650545 2.741414141414142  3.483770450905254e-06 0.04864772283650545 2.771212121212122  3.483770450905253e-06 0.04864772283650545 2.801010101010102  3.483770450905253e-06 0.04864772283650545 2.830808080808081  3.483770450905253e-06 0.04864772283650545 2.860606060606061  3.483770450905253e-06 0.04864772283650545 2.890404040404041  3.483770450905253e-06 0.04864772283650545 2.92020202020202  0.9705745651584323 0.0546328692740541 2.95  0.9410403409854562 0.05904933268918263 2.95  0.9114506936029688 0.06307764259166145 2.95  0.8818365365778597 0.06692205633990718 2.95  0.852195425756178 0.07055529100758898 2.95  0.8225213484314672 0.07390813590379837 2.95  0.7928382076274137 0.07717791230068967 2.95  0.7631311412584285 0.08022519712851128 2.95  0.7333970986343074 0.08299595685799818 2.95  0.7036468593402103 0.08558339900696151 2.95  0.6738808305098906 0.08798485813956464 2.95  0.6440919092681797 0.09008334865923617 2.95  0.6142870835549664 0.09194561288677774 2.95  0.5844675933514397 0.09355367701932085 2.95  0.5546335832429207 0.09486496269114339 2.95  0.5247876530181904 0.095868659884793 2.95  0.4949363523436856 0.09668736484019783 2.95  0.4650802095563029 0.09731740696399105 2.95  0.4352195800941197 0.09768943189876603 2.95  0.405357042743103 0.09780828360274334 2.95  0.3754942534896675 0.09784351677757946 2.95  0.3456322298379585 0.09760772238205492 2.95  0.3157719755355017 0.09723970101506153 2.95  0.2859142869264596 0.09668561931752166 2.95  0.2560638915081948 0.09582390318294828 2.95  0.2262236143831659 0.09466390431188013 2.95  0.1964020995566796 0.09309886371899376 2.95  0.1665963941161298 0.09125714074218327 2.95  0.1368197180220126 0.08899319787719009 2.95  0.1070946678970156 0.08612945256268216 2.95  0.07746305623222323 0.08244010579101241 2.95  0.04805012948181673 0.07731042839253653 2.95  0.01932358256457366 0.06928107812002522 2.95  1 0.04955 0.02979797979797999  1 0.04955 0.05959595959595966  1 0.04955 0.08939393939393965  1 0.04955 0.1191919191919193  1 0.04955 0.1489898989898993  1 0.04955 0.178787878787879  1 0.04955 0.2085858585858589  1 0.04955 0.2383838383838386  1 0.04955 0.2681818181818186  1 0.04955 0.2979797979797986  1 0.04955 0.3277777777777782  1 0.04955 0.3575757575757582  1 0.04955 0.3873737373737379  1 0.04955 0.4171717171717179  1 0.04955 0.4469696969696979  1 0.04955 0.4767676767676775  1 0.04955 0.5065656565656572  1 0.04955 0.5363636363636372  1 0.04955 0.5661616161616169  1 0.04955 0.5959595959595969  1 0.04955 0.6257575757575765  1 0.04955 0.6555555555555564  1 0.04955 0.6853535353535362  1 0.04955 0.7151515151515158  1 0.04955 0.7449494949494958  1 0.04955 0.7747474747474755 
[...]
<PointData  Vectors="Displacement"> 
<DataArray  type="Float64"  Name="Displacement"  NumberOfComponents="3" format="ascii">0.0000000000000000e+00 0.0000000000000000e+00 0.0000000000000000e+00  0.0000000000000000e+00 0.0000000000000000e+00 0.0000000000000000e+00  1.5430188132595236e-05 -1.2337156256160779e-03 1.4682117232825950e-06  1.5437914082958839e-05 -1.2413746111623962e-03 -4.5092088462692193e-06  0.0000000000000000e+00 0.0000000000000000e+00 0.0000000000000000e+00  0.0000000000000000e+00 0.0000000000000000e+00 0.0000000000000000e+00  0.0000000000000000e+00 0.0000000000000000e+00 0.0000000000000000e+00  0.0000000000000000e+00 0.0000000000000000e+00 0.0000000000000000e+00  0.0000000000000000e+00 0.0000000000000000e+00 0.0000000000000000e+00  0.0000000000000000e+00 0.0000000000000000e+00 0.0000000000000000e+00  0.0000000000000000e+00 0.0000000000000000e+00 0.0000000000000000e+00  0.0000000000000000e+00 0.0000000000000000e+00 0.0000000000000000e+00  0.0000000000000000e+00 0.0000000000000000e+00 0.0000000000000000e+00  0.0000000000000000e+00 0.0000000000000000e+00 0.0000000000000000e+00  0.0000000000000000e+00 0.0000000000000000e+00 0.0000000000000000e+00  0.0000000000000000e+00 0.0000000000000000e+00 0.0000000000000000e+00  0.0000000000000000e+00 0.0000000000000000e+00 0.0000000000000000e+00  0.0000000000000000e+00 0.0000000000000000e+00 0.0000000000000000e+00  0.0000000000000000e+00 0.0000000000000000e+00 0.0000000000000000e+00  0.0000000000000000e+00 0.0000000000000000e+00 0.0000000000000000e+00  0.0000000000000000e+00 0.0000000000000000e+00 0.0000000000000000e+00  0.0000000000000000e+00 0.0000000000000000e+00 0.0000000000000000e+00  0.0000000000000000e+00 0.0000000000000000e+00 0.0000000000000000e+00  0.0000000000000000e+00 0.0000000000000000e+00 0.0000000000000000e+00  0.0000000000000000e+00 0.0000000000000000e+00 0.0000000000000000e+00  0.0000000000000000e+00 0.0000000000000000e+00 0.0000000000000000e+00  0.0000000000000000e+00 0.0000000000000000e+00 0.0000000000000000e+00  0.0000000000000000e+00 0.0000000000000000e+00 0.0000000000000000e+00  0.0000000000000000e+00 0.0000000000000000e+00 0.0000000000000000e+00  0.0000000000000000e+00 0.0000000000000000e+00 0.0000000000000000e+00  0.0000000000000000e+00 0.0000000000000000e+00 0.0000000000000000e+00  0.0000000000000000e+00 0.0000000000000000e+00 0.0000000000000000e+00  0.0000000000000000e+00 0.0000000000000000e+00 0.0000000000000000e+00  0.0000000000000000e+00 0.0000000000000000e+00 0.0000000000000000e+00  0.0000000000000000e+00 0.0000000000000000e+00 0.0000000000000000e+00  0.0000000000000000e+00 0.0000000000000000e+00 0.0000000000000000e+00  0.0000000000000000e+00 0.0000000000000000e+00 0.0000000000000000e+00  -1.8855010593091764e-08 2.5594223314577405e-07 2.8033872330541572e-08  2.9422037308643734e-08 2.7356951509214571e-08 1.5005555861447705e-07  8.0176361904863938e-08 -6.8430329317428003e-07 2.8799230312017604e-07  1.4261941371682265e-07 -2.0063390443609211e-06 3.2008262286974108e-07  1.3397102393684820e-07 -3.9172172598861163e-06 3.6666572426596134e-07  2.0685702027430109e-07 -6.4643124985587338e-06 3.9581730782992948e-07  2.4240171243174261e-07 -9.6869749354077786e-06 3.9742481154429490e-07  2.7151980040070784e-07 -1.3398401353533215e-05 5.1558322634007559e-07  3.4646567036834590e-07 -1.7686289982072165e-05 5.5636518354938186e-07  3.8270349150411665e-07 -2.2583775124999709e-05 5.8772396243592360e-07  4.8357243079742123e-07 -2.7964217811995421e-05 6.3810284583438984e-07  5.9026194807240439e-07 -3.3850282554046922e-05 6.4751067700298486e-07  6.2787550646120757e-07 -4.0293975502000001e-05 6.9785892989123908e-07  7.2901255746764652e-07 -4.7144069426498101e-05 6.2241229895842339e-07  7.7595287914483842e-07 -5.4449947276339184e-05 7.3246996511893621e-07  9.0878981943781874e-07 -6.2234916599916519e-05 7.1586767135721173e-07  9.9963188546549148e-07 -7.0315046611496299e-05 7.6917160451536523e-07  1.0699454141232561e-06 -7.8985813204501300e-05 8.1572754805868155e-07  1.2165860097266224e-06 -8.7999918396255796e-05 8.6821351963402547e-07  1.3250506607157797e-06 -9.7352515777880135e-05 8.0826275047584493e-07  1.4364209711584475e-06 -1.0696500048460792e-04 9.2020126922411882e-07  1.5419668371181997e-06 -1.1690178655428278e-04 1.0216488968925099e-06  1.7384938511655293e-06 -1.2718187118537026e-04 1.0238273046458287e-06  1.8246127879618360e-06 -1.3772717191601189e-04 1.0414924460234044e-06  1.9984332464269536e-06 -1.4853659961260873e-04 1.0602877850561035e-06  2.1572552678639720e-06 -1.5961654551450435e-04 1.0090059639784865e-06  2.2513311733909017e-06 -1.7104793738916986e-04 1.0021680602498845e-06  2.3695633273690487e-06 -1.8269460454226316e-04 1.0783427899424713e-06  2.5165487321860856e-06 -1.9464314853545760e-04 1.1234235288365951e-06  2.6847215786203898e-06 -2.0678642924827479e-04 1.1575673039610813e-06  2.8294645883832384e-06 -2.1910887933368007e-04 1.1868022561976159e-06  2.9896967783307290e-06 -2.3163355930282763e-04 1.2090153774816106e-06  3.1582591199630624e-06 -2.4437803345599525e-04 1.2138792968691782e-06  3.3263864758514737e-06 -2.5732193779972961e-04 1.1880866513314362e-06  3.4618752387711066e-06 -2.7037625768449209e-04 1.2021139428930222e-06  3.6083376260516065e-06 -2.8361720074904744e-04 1.2610381084438978e-06  3.8018453303982957e-06 -2.9703078954307810e-04 1.2736184482744202e-06  3.9740539236791701e-06 -3.1059792691101650e-04 1.2752938689366642e-06  4.1443447151395249e-06 -3.2430725638992131e-04 1.2562099212220908e-06  4.2941719854600878e-06 -3.3809695627129248e-04 1.2882841669379589e-06  4.4683250535698128e-06 -3.5202510165123431e-04 1.3138072072699924e-06  4.6522592864762208e-06 -3.6612029600441195e-04 1.3366950622796144e-06  4.8127645300718807e-06 -3.8032048512846221e-04 1.3537801070533502e-06  5.0060981400517400e-06 -3.9462320711569350e-04 1.3603546904741052e-06  5.1877004559511206e-06 -4.0903011568119293e-04 1.3622188375425044e-06  5.3621668143277723e-06 -4.2352663392590105e-04 1.3629602914256700e-06  5.5484880403818544e-06 -4.3809102306183119e-04 1.3480165907748548e-06  5.7236018855004030e-06 -4.5273901653466477e-04 1.3663952944755614e-06  5.8989803142100304e-06 -4.6744921550778462e-04 1.3745011728855504e-06  6.0880094533040038e-06 -4.8223855051796277e-04 1.3881120025186396e-06  6.2668122280034269e-06 -4.9710671075861947e-04 1.4100335810600542e-06  6.4536555509835065e-06 -5.1202522608998294e-04 1.4179573706906255e-06  6.6501522767709876e-06 -5.2700463975173539e-04 1.4055335606891895e-06  6.8248669948005003e-06 -5.4202204406006893e-04 1.4114258527382338e-06  7.0194293649642177e-06 -5.5709184795881884e-04 1.4139573315303947e-06  7.2009696815765666e-06 -5.7220333748896491e-04 1.4189903809536512e-06  7.3879941374449122e-06 -5.8734450585064550e-04 1.4273117698104698e-06  7.5721467472625914e-06 -6.0252329928079567e-04 1.4419466674085294e-06  7.7660237792235682e-06 -6.1773455003777476e-04 1.4451252794310911e-06  7.9600434261468643e-06 -6.3297168072701639e-04 1.4389775792993580e-06  8.1437340365430708e-06 -6.4823601731612082e-04 1.4416951460554312e-06  8.3294719245043097e-06 -6.6352894849997987e-04 1.4538320428267405e-06  8.5259732308633602e-06 -6.7884575398820355e-04 1.4534944855648019e-06  8.7189032083684960e-06 -6.9418262494586329e-04 1.4504332015591872e-06  8.9073683971831286e-06 -7.0953567881666321e-04 1.4518934228335737e-06  9.0962563999741696e-06 -7.2490016462188156e-04 1.4581337870472771e-06  9.2861869783596808e-06 -7.4027849777210872e-04 1.4614990226667114e-06  9.4800807472635973e-06 -7.5566454390026962e-04 1.4621891788369826e-06  9.6701568080931984e-06 -7.7106303193974924e-04 1.4633959598193692e-06  9.8630649050098541e-06 -7.8646933656914997e-04 1.4635751655664218e-06  1.0056092780869081e-05 -8.0188221218138245e-04 1.4621479304808432e-06  1.0246896732779833e-05 -8.1730160474985814e-04 1.4629090602822609e-06  1.0437152097476110e-05 -8.3272444152110024e-04 1.4657454632061291e-06  1.0628862122065800e-05 -8.4815085616716970e-04 1.4662046030188790e-06  1.0821288152064191e-05 -8.6358076666598999e-04 1.4667098001035949e-06  1.1013614167516475e-05 -8.7901114539769027e-04 1.4669712290887496e-06  1.1205098605713145e-05 -8.9444253946963234e-04 1.4669771212905001e-06  1.1397691992990263e-05 -9.0987434533648019e-04 1.4669904865539347e-06  1.1589917432487475e-05 -9.2530613145086580e-04 1.4676709719884832e-06  1.1781646910683392e-05 -9.4073718450076718e-04 1.4680040361194200e-06  1.1973475262425571e-05 -9.5616738789116814e-04 1.4678836169541318e-06  1.2165568620271743e-05 -9.7159644618255382e-04 1.4678718834979052e-06  1.2357757647171930e-05 -9.8702411010420047e-04 1.4679442266296261e-06  1.2549666792841704e-05 -1.0024504868272122e-03 1.4678497766450256e-06  1.2741667326601995e-05 -1.0178755586364766e-03 1.4679632303326696e-06  1.2933885215159934e-05 -1.0332989435070572e-03 1.4682120513992568e-06  1.3125999612866530e-05 -1.0487210801700833e-03 1.4682269049951084e-06  1.3317965660480694e-05 -1.0641417485480441e-03 1.4680930776125604e-06  1.3509870313685867e-05 -1.0795610668053706e-03 1.4680965599859287e-06  1.3701927209442510e-05 -1.0949793572669162e-03 1.4682760569563806e-06  1.3894051848790143e-05 -1.1103965799437070e-03 1.4683615680978595e-06  1.4086038965259307e-05 -1.1258129840027633e-03 1.4681271979128443e-06  1.4278105713999709e-05 -1.1412285795937658e-03 1.4680777048199615e-06  1.4470047295260553e-05 -1.1566436007793936e-03 1.4680969441178201e-06  1.4662074490926234e-05 -1.1720582928894531e-03 1.4681675506496713e-06  1.4854097888803893e-05 -1.1874727452048455e-03 1.4681846012568578e-06  1.5046113999587059e-05 -1.2028870538916014e-03 1.4682211134781452e-06  1.5238153459406732e-05 -1.2183013134137402e-03 1.4682173810387725e-06  1.5476678306383818e-05 -1.2411502013049379e-03 -1.6903706785843800e-06  1.5510387721589998e-05 -1.2409248512906938e-03 7.8446892701868100e-07  1.5541155252746916e-05 -1.2406989596625904e-03 3.0589037183781242e-06  1.5570532217098295e-05 -1.2404727743157032e-03 5.2383898810532290e-06  1.5598325666240444e-05 -1.2402462457585372e-03 7.3088469335966010e-06  1.5623972327648707e-05 -1.2400193021163059e-03 9.2344391028230685e-06  1.5648981307955504e-05 -1.2397922609303500e-03 1.1117141069192959e-05  1.5672273796523978e-05 -1.2395649899474986e-03 1.2884926963162988e-05  1.5693466070081038e-05 -1.2393374896080022e-03 1.4509819698874404e-05  1.5713246874205703e-05 -1.2391098453532856e-03 1.6040028553497212e-05  1.5731625315451280e-05 -1.2388821242410994e-03 1.7474118265419267e-05  1.5747681985143167e-05 -1.2386542157328290e-03 1.8751665979440961e-05  1.5761940807447857e-05 -1.2384261909983091e-03 1.9907092193867728e-05  1.5774275091372077e-05 -1.2381979811051846e-03 2.0931117373309300e-05  1.5784344138972043e-05 -1.2379696348228046e-03 2.1801704480004633e-05  1.5792077225092305e-05 -1.2377411427946070e-03 2.2513275836897715e-05  1.5798409779095767e-05 -1.2375126014435775e-03 2.3129190301281540e-05  1.5803299934809463e-05 -1.2372839552511831e-03 2.3647542669557165e-05  1.5806222829306087e-05 -1.2370552103818798e-03 2.4032451196464969e-05  1.5807207143614124e-05 -1.2368263845171069e-03 2.4286402382565162e-05  1.5807551242769113e-05 -1.2365975013202842e-03 2.4497108572634830e-05  1.5805810575781963e-05 -1.2363685598859846e-03 2.4567604948302186e-05  1.5803058515257212e-05 -1.2361395686460413e-03 2.4569689796486764e-05  1.5798877305161982e-05 -1.2359105195372164e-03 2.4475505092860493e-05  1.5792307506041078e-05 -1.2356814724048004e-03 2.4222117742779342e-05  1.5783447390812508e-05 -1.2354524657676878e-03 2.3814366624363226e-05  1.5771474581998695e-05 -1.2352235530011446e-03 2.3196967577313060e-05  1.5757353475994909e-05 -1.2349947331026857e-03 2.2436342329051790e-05  1.5739971880665789e-05 -1.2347661047973305e-03 2.1457100392955828e-05  1.5717973432893400e-05 -1.2345378623421094e-03 2.0167235521312206e-05  1.5689639766869705e-05 -1.2343103284307331e-03 1.8449693271266341e-05  1.5650241958302035e-05 -1.2340844964623878e-03 1.5985657393857924e-05  1.5588588549982889e-05 -1.2338639463760925e-03 1.2017235119453904e-05  -7.6932411699804459e-08 -3.4472470181010527e-08 -3.6995374802514459e-08  -1.5105179593646437e-07 -3.3900382339589336e-07 -1.1176170335481443e-07  -1.7879014766621360e-07 -8.1512286301624754e-07 -2.7281741182033607e-07  -1.4341935784749979e-07 -2.2144817364854532e-06 -5.2394990705445380e-07  -2.6701662326588526e-08 -3.7739968365447211e-06 -7.4648258528361374e-07  1.9350898989416671e-08 -5.5166900052271599e-06 -8.1597423903413590e-07  6.3551569421516891e-08 -8.6780896784602828e-06 -9.1745425525465408e-07  1.2730709835189028e-07 -1.2001792836730581e-05 -1.0314154533617231e-06  9.0769271612896485e-08 -1.5817741152489219e-05 -1.1276492152969686e-06  1.6881350920149335e-07 -2.0158717049065417e-05 -1.3245264280679129e-06  3.5067196964443802e-07 -2.5190879497204541e-05 -1.5780270461260648e-06  5.2675894631195051e-07 -3.0433997702681164e-05 -1.8326377399913621e-06  7.2729331869236718e-07 -3.5918644148716088e-05 -2.0698319712365133e-06  7.1428916909834167e-07 -4.2836724793107518e-05 -2.0989657558719168e-06  8.4627041397891564e-07 -5.0152852452855121e-05 -2.2047271446309274e-06  9.1531607241823291e-07 -5.7558525862771893e-05 -2.3707209271679478e-06  1.0225521936238231e-06 -6.5660233870696590e-05 -2.5144040760089832e-06  1.1166393307972606e-06 -7.4393269126650399e-05 -2.7429628627529945e-06  1.2133317603946933e-06 -8.3662774433773904e-05 -2.9831686676084551e-06  1.3605973258823513e-06 -9.3437765654219896e-05 -3.0332508086828429e-06  1.4298214608351069e-06 -1.0353381564235816e-04 -3.0801376256327196e-06  1.5483601908376661e-06 -1.1374944097545283e-04 -3.1681942235686580e-06  1.6879797797413800e-06 -1.2420945628527241e-04 -3.2287899409312367e-06  1.8051468644649798e-06 -1.3502670971331197e-04 -3.3292361404793318e-06  1.9611232578577570e-06 -1.4611347064022603e-04 -3.4426129567862023e-06  2.0800802240907660e-06 -1.5750649641807653e-04 -3.4492100857989393e-06  2.2257452059529583e-06 -1.6924707983435470e-04 -3.6198409032939453e-06  2.3522130110757739e-06 -1.8138522340807269e-04 -3.6932712778606801e-06  2.5023716673497909e-06 -1.9364751588318927e-04 -3.7692125361139865e-06  2.6924819851725815e-06 -2.0615653792892803e-04 -3.8560550709066498e-06  2.8583339936913142e-06 -2.1871678295203636e-04 -3.8966834802283699e-06  3.0099676425982498e-06 -2.3144954382848512e-04 -3.9032374026185036e-06  3.1742624499113362e-06 -2.4442493170299929e-04 -3.9745625689263167e-06  3.3246488582342439e-06 -2.5760799452644202e-04 -4.0392061146830713e-06  3.4783172911423460e-06 -2.7102248402030164e-04 -4.0373567819610041e-06  3.6526213664452469e-06 -2.8451480411720450e-04 -4.1170381475906828e-06  3.8397218592903659e-06 -2.9804529976726129e-04 -4.1201985201787253e-06  4.0202580793499868e-06 -3.1190521930318945e-04 -4.1593210130380911e-06  4.1787094383684780e-06 -3.2588432883747811e-04 -4.2201462626026385e-06  4.3565605865180766e-06 -3.3997786075282247e-04 -4.2592851087674193e-06  4.5189281456661863e-06 -3.5436216457753036e-04 -4.3037739448644858e-06  4.6924638889464253e-06 -3.6876626503447969e-04 -4.3274014220734519e-06  4.8650144992314858e-06 -3.8326299527839799e-04 -4.3578791704536385e-06  5.0440043502589594e-06 -3.9780316538768414e-04 -4.3604733865634690e-06  5.2251923919859375e-06 -4.1245968391809588e-04 -4.3671411243299081e-06  5.4036162132517624e-06 -4.2715435354535349e-04 -4.3890792962780211e-06  5.5744376516398333e-06 -4.4196288050885963e-04 -4.4069281920223463e-06  5.7580205331939964e-06 -4.5678737346422255e-04 -4.4176636842011628e-06  5.9289677453569885e-06 -4.7170752996302651e-04 -4.4471329332659481e-06  6.1250351135499976e-06 -4.8671951747296898e-04 -4.4617471861824948e-06  6.3092239317724409e-06 -5.0178138875362562e-04 -4.4740607016061873e-06  6.4821121360143506e-06 -5.1689772604269276e-04 -4.4946720380637180e-06  6.6673574603156512e-06 -5.3204532590976302e-04 -4.5091036079491265e-06  6.8564863369651889e-06 -5.4724558390165697e-04 -4.5075397066038103e-06  7.0397459477193279e-06 -5.6249439943304542e-04 -4.5211273366241886e-06  7.2257688048295970e-06 -5.7777113004778822e-04 -4.5288000458189358e-06  7.4179705957563489e-06 -5.9306476690086857e-04 -4.5321815947955574e-06  7.5996584719788449e-06 -6.0845573100230344e-04 -4.5392232809645853e-06  7.7817186643817674e-06 -6.2385181586716216e-04 -4.5391285372788508e-06  7.9678080973405371e-06 -6.3924036040775205e-04 -4.5455144923801403e-06  8.1577988677068154e-06 -6.5463207061421808e-04 -4.5490958488696373e-06  8.3492896299651197e-06 -6.7004275170415761e-04 -4.5501579707156885e-06  8.5410715111656059e-06 -6.8545346233549382e-04 -4.5496319093433584e-06  8.7328286609456943e-06 -7.0087275437863352e-04 -4.5484383949916084e-06  8.9231409559810833e-06 -7.1629830803077881e-04 -4.5492437523526638e-06  9.1144243302943087e-06 -7.3174501307887447e-04 -4.5504556412846185e-06  9.3064626923328293e-06 -7.4718983292013628e-04 -4.5499874679239834e-06  9.4972835613914297e-06 -7.6265116117565143e-04 -4.5499782071177442e-06  9.6872979367410934e-06 -7.7812669912064177e-04 -4.5507554789036107e-06  9.8779379220057429e-06 -7.9360902720323459e-04 -4.5480668833209255e-06  1.0065862473298276e-05 -8.0909848036317844e-04 -4.5488602031189746e-06  1.0258764945834611e-05 -8.2456927218662864e-04 -4.5466782068044890e-06  1.0451487089223780e-05 -8.4004184921073009e-04 -4.5455616200390663e-06  1.0642826626775787e-05 -8.5551257381334168e-04 -4.5431680949271568e-06  1.0832751176643808e-05 -8.7098755697127708e-04 -4.5399086800397196e-06  1.1024170108077170e-05 -8.8645761597714754e-04 -4.5376130244358198e-06  1.1215389035162732e-05 -9.0192241784161091e-04 -4.5344469233736205e-06  1.1407168129168547e-05 -9.1738692755138039e-04 -4.5327585132974015e-06  1.1599387894214330e-05 -9.3284320293073096e-04 -4.5308707444234299e-06  1.1791833540005010e-05 -9.4829228799240889e-04 -4.5289500280717045e-06  1.1983630773961013e-05 -9.6374068204778287e-04 -4.5264841044031171e-06  1.2175431565669863e-05 -9.7918890175259401e-04 -4.5250376096499667e-06  1.2367669003409872e-05 -9.9463147096762986e-04 -4.5231693905926837e-06  1.2559336663236536e-05 -1.0100720300083345e-03 -4.5212559020476817e-06  1.2750718714519537e-05 -1.0255137179970492e-03 -4.5186825677891370e-06  1.2941646333553003e-05 -1.0409468707671876e-03 -4.5166234329147892e-06  1.3133914638643469e-05 -1.0563738995404471e-03 -4.5151663698446925e-06  1.3325948323008471e-05 -1.0717983269027923e-03 -4.5143206565003785e-06  1.3517937741805593e-05 -1.0872219671512343e-03 -4.5135374284735913e-06  1.3709863307250034e-05 -1.1026435840212475e-03 -4.5124620927011770e-06  1.3901905729399644e-05 -1.1180610425067959e-03 -4.5111368946306941e-06  1.4094042857006786e-05 -1.1334765901819795e-03 -4.5106673110178364e-06  1.4286002321546484e-05 -1.1488918334976472e-03 -4.5102364629344120e-06  1.4477903026654562e-05 -1.1643065493933372e-03 -4.5097795448691879e-06  1.4669895046941359e-05 -1.1797205497474327e-03 -4.5095182537334846e-06  1.4861805093888963e-05 -1.1951342771685848e-03 -4.5093106098129060e-06  1.5053787269887232e-05 -1.2105480104742229e-03 -4.5092217708632739e-06  1.5245834223212306e-05 -1.2259613189771769e-03 -4.5092093896408957e-06  1.5279366635712889e-05 -1.2338759003226705e-03 -8.8291540095428757e-06  1.5211018499021190e-05 -1.2340944394158520e-03 -1.3617950452505843e-05  1.5171659313011502e-05 -1.2343202574921944e-03 -1.6459280220492528e-05  1.5142347853484852e-05 -1.2345476727013052e-03 -1.8625901812929388e-05  1.5119758582706030e-05 -1.2347758496919377e-03 -2.0340508477790413e-05  1.5101756077316437e-05 -1.2350044103987762e-03 -2.1748191580780776e-05  1.5086880810832831e-05 -1.2352331794352025e-03 -2.2946499909494467e-05  1.5075908243794247e-05 -1.2354621301668459e-03 -2.3882838637084964e-05  1.5067779772667677e-05 -1.2356911694799688e-03 -2.4628676321875445e-05  1.5062127658571918e-05 -1.2359202285314511e-03 -2.5208971774225535e-05  1.5058760177810157e-05 -1.2361492734080449e-03 -2.5635872243756305e-05  1.5057109459078110e-05 -1.2363782827188707e-03 -2.5946932325570955e-05  1.5057542741204481e-05 -1.2366072286398083e-03 -2.6117699