<?xml version="1.0"?>
<VTKFile type="UnstructuredGrid"  version="0.1"  >
<UnstructuredGrid>
<Piece  NumberOfPoints="10958" NumberOfCells="41820">
<Points>
<DataArray  type="Float64"  NumberOfComponents="3"  format="ascii">1 0.04955 0  3.483770450905253e-06 0.04864772283650545 0  3.483770450905253e-06 0.04864772283650545 2.95  1 0.04955 2.95  0.9705745651584323 0.0546328692740541 0  0.9410403409854562 0.05904933268918263 0  0.9114506936029688 0.06307764259166145 0  0.8818365365778597 0.06692205633990718 0  0.852195425756178 0.07055529100758898 0  0.8225213484314672 0.07390813590379837 0  0.7928382076274137 0.07717791230068967 0  0.7631311412584285 0.08022519712851128 0  0.7333970986343074 0.08299595685799818 0  0.7036468593402103 0.08558339900696151 0  0.6738808305098906 0.08798485813956464 0  0.6440919092681797 0.09008334865923617 0  0.6142870835549664 0.09194561288677774 0  0.5844675933514397 0.09355367701932085 0  0.5546335832429207 0.09486496269114339 0  0.5247876530181904 0.095868659884793 0  0.4949363523436856 0.09668736484019783 0  0.4650802095563029 0.09731740696399105 0  0.4352195800941197 0.09768943189876603 0  0.405357042743103 0.09780828360274334 0  0.3754942534896675 0.09784351677757946 0  0.3456322298379585 0.09760772238205492 0  0.3157719755355017 0.09723970101506153 0  0.2859142869264596 0.09668561931752166 0  0.2560638915081948 0.09582390318294828 0  0.2262236143831659 0.09466390431188013 0  0.1964020995566796 0.09309886371899376 0  0.1665963941161298 0.09125714074218327 0  0.1368197180220126 0.08899319787719009 0  0.1070946678970156 0.08612945256268216 0  0.07746305623222323 0.08244010579101241 0  0.04805012948181673 0.07731042839253653 0  0.01932358256457366 0.06928107812002522 0  3.483770450905253e-06 0.04864772283650545 0.02979797979797999  3.483770450905253e-06 0.04864772283650545 0.05959595959595966  3.483770450905253e-06 0.04864772283650545 0.08939393939393965  3.483770450905253e-06 0.04864772283650545 0.1191919191919193  3.483770450905253e-06 0.04864772283650545 0.1489898989898993  3.483770450905253e-06 0.04864772283650545 0.178787878787879  3.483770450905253e-06 0.04864772283650545 0.2085858585858589  3.483770450905253e-06 0.04864772283650545 0.2383838383838386  3.483770450905253e-06 0.04864772283650545 0.2681818181818186  3.483770450905253e-06 0.04864772283650545 0.2979797979797986  3.483770450905253e-06 0.04864772283650545 0.3277777777777782  3.483770450905253e-06 0.04864772283650545 0.3575757575757582  3.483770450905253e-06 0.04864772283650545 0.3873737373737379  3.483770450905253e-06 0.04864772283650545 0.4171717171717179  3.483770450905253e-06 0.04864772283650545 0.4469696969696979  3.483770450905253e-06 0.04864772283650545 0.4767676767676775  3.483770450905253e-06 0.04864772283650545 0.5065656565656572  3.483770450905253e-06 0.04864772283650545 0.5363636363636372  3.483770450905253e-06 0.04864772283650545 0.5661616161616169  3.483770450905254e-06 0.04864772283650545 0.5959595959595969  3.483770450905253e-06 0.04864772283650545 0.6257575757575765  3.483770450905254e-06 0.04864772283650545 0.6555555555555564  3.483770450905253e-06 0.04864772283650545 0.6853535353535362  3.483770450905253e-06 0.04864772283650545 0.7151515151515158  3.483770450905253e-06 0.04864772283650545 0.7449494949494958  3.483770450905253e-06 0.04864772283650545 0.7747474747474755  3.483770450905253e-06 0.04864772283650545 0.8045454545454552  3.483770450905253e-06 0.04864772283650545 0.8343434343434351  3.483770450905253e-06 0.04864772283650545 0.8641414141414151  3.483770450905253e-06 0.04864772283650545 0.8939393939393945  3.483770450905254e-06 0.04864772283650545 0.9237373737373745  3.483770450905253e-06 0.04864772283650545 0.9535353535353545  3.483770450905254e-06 0.04864772283650545 0.9833333333333341  3.483770450905253e-06 0.04864772283650545 1.013131313131314  3.483770450905254e-06 0.04864772283650545 1.042929292929294  3.483770450905253e-06 0.04864772283650545 1.072727272727274  3.483770450905254e-06 0.04864772283650545 1.102525252525254  3.483770450905253e-06 0.04864772283650545 1.132323232323234  3.483770450905254e-06 0.04864772283650545 1.162121212121214  3.483770450905253e-06 0.04864772283650545 1.191919191919194  3.483770450905254e-06 0.04864772283650545 1.221717171717174  3.483770450905253e-06 0.04864772283650545 1.251515151515153  3.483770450905254e-06 0.04864772283650545 1.281313131313133  3.483770450905253e-06 0.04864772283650545 1.311111111111113  3.483770450905253e-06 0.04864772283650545 1.340909090909093  3.483770450905253e-06 0.04864772283650545 1.370707070707073  3.483770450905253e-06 0.04864772283650545 1.400505050505053  3.483770450905253e-06 0.04864772283650545 1.430303030303033  3.483770450905253e-06 0.04864772283650545 1.460101010101013  3.483770450905253e-06 0.04864772283650545 1.489898989898993  3.483770450905253e-06 0.04864772283650545 1.519696969696973  3.483770450905253e-06 0.04864772283650545 1.549494949494953  3.483770450905253e-06 0.04864772283650545 1.579292929292933  3.483770450905253e-06 0.04864772283650545 1.609090909090913  3.483770450905253e-06 0.04864772283650545 1.638888888888893  3.483770450905254e-06 0.04864772283650545 1.668686868686872  3.483770450905253e-06 0.04864772283650545 1.698484848484852  3.483770450905254e-06 0.04864772283650545 1.728282828282832  3.483770450905253e-06 0.04864772283650545 1.758080808080812  3.483770450905254e-06 0.04864772283650545 1.787878787878792  3.483770450905253e-06 0.04864772283650545 1.817676767676772  3.483770450905254e-06 0.04864772283650545 1.847474747474752  3.483770450905253e-06 0.04864772283650545 1.877272727272732  3.483770450905254e-06 0.04864772283650545 1.907070707070712  3.483770450905253e-06 0.04864772283650545 1.936868686868691  3.483770450905253e-06 0.04864772283650545 1.966666666666671  3.483770450905253e-06 0.04864772283650545 1.996464646464651  3.483770450905253e-06 0.04864772283650545 2.02626262626263  3.483770450905253e-06 0.04864772283650545 2.056060606060611  3.483770450905253e-06 0.04864772283650545 2.08585858585859  3.483770450905254e-06 0.04864772283650545 2.11565656565657  3.483770450905253e-06 0.04864772283650545 2.14545454545455  3.483770450905253e-06 0.04864772283650545 2.175252525252529  3.483770450905253e-06 0.04864772283650545 2.205050505050508  3.483770450905253e-06 0.04864772283650545 2.234848484848488  3.483770450905253e-06 0.04864772283650545 2.264646464646468  3.483770450905253e-06 0.04864772283650545 2.294444444444448  3.483770450905253e-06 0.04864772283650545 2.324242424242427  3.483770450905253e-06 0.04864772283650545 2.354040404040407  3.483770450905253e-06 0.04864772283650545 2.383838383838387  3.483770450905254e-06 0.04864772283650545 2.413636363636366  3.483770450905253e-06 0.04864772283650545 2.443434343434346  3.483770450905253e-06 0.04864772283650545 2.473232323232326  3.483770450905253e-06 0.04864772283650545 2.503030303030305  3.483770450905253e-06 0.04864772283650545 2.532828282828285  3.483770450905253e-06 0.04864772283650545 2.562626262626264  3.483770450905253e-06 0.04864772283650545 2.592424242424244  3.483770450905254e-06 0.04864772283650545 2.622222222222224  3.483770450905253e-06 0.04864772283650545 2.652020202020203  3.483770450905253e-06 0.04864772283650545 2.681818181818183  3.483770450905253e-06 0.04864772283650545 2.711616161616163  3.483770450905253e-06 0.04864772283650545 2.741414141414142  3.483770450905254e-06 0.04864772283650545 2.771212121212122  3.483770450905253e-06 0.04864772283650545 2.801010101010102  3.483770450905253e-06 0.04864772283650545 2.830808080808081  3.483770450905253e-06 0.04864772283650545 2.860606060606061  3.483770450905253e-06 0.04864772283650545 2.890404040404041  3.483770450905253e-06 0.04864772283650545 2.92020202020202  0.9705745651584323 0.0546328692740541 2.95  0.9410403409854562 0.05904933268918263 2.95  0.9114506936029688 0.06307764259166145 2.95  0.8818365365778597 0.06692205633990718 2.95  0.852195425756178 0.07055529100758898 2.95  0.8225213484314672 0.07390813590379837 2.95  0.7928382076274137 0.07717791230068967 2.95  0.7631311412584285 0.08022519712851128 2.95  0.7333970986343074 0.08299595685799818 2.95  0.7036468593402103 0.08558339900696151 2.95  0.6738808305098906 0.08798485813956464 2.95  0.6440919092681797 0.09008334865923617 2.95  0.6142870835549664 0.09194561288677774 2.95  0.5844675933514397 0.09355367701932085 2.95  0.5546335832429207 0.09486496269114339 2.95  0.5247876530181904 0.095868659884793 2.95  0.4949363523436856 0.09668736484019783 2.95  0.4650802095563029 0.09731740696399105 2.95  0.4352195800941197 0.09768943189876603 2.95  0.405357042743103 0.09780828360274334 2.95  0.3754942534896675 0.09784351677757946 2.95  0.3456322298379585 0.09760772238205492 2.95  0.3157719755355017 0.09723970101506153 2.95  0.2859142869264596 0.09668561931752166 2.95  0.2560638915081948 0.09582390318294828 2.95  0.2262236143831659 0.09466390431188013 2.95  0.1964020995566796 0.09309886371899376 2.95  0.1665963941161298 0.09125714074218327 2.95  0.1368197180220126 0.08899319787719009 2.95  0.1070946678970156 0.08612945256268216 2.95  0.07746305623222323 0.08244010579101241 2.95  0.04805012948181673 0.07731042839253653 2.95  0.01932358256457366 0.06928107812002522 2.95  1 0.04955 0.02979797979797999  1 0.04955 0.05959595959595966  1 0.04955 0.08939393939393965  1 0.04955 0.1191919191919193  1 0.04955 0.1489898989898993  1 0.04955 0.178787878787879  1 0.04955 0.2085858585858589  1 0.04955 0.2383838383838386  1 0.04955 0.2681818181818186  1 0.04955 0.2979797979797986  1 0.04955 0.3277777777777782  1 0.04955 0.3575757575757582  1 0.04955 0.3873737373737379  1 0.04955 0.4171717171717179  1 0.04955 0.4469696969696979  1 0.04955 0.4767676767676775  1 0.04955 0.5065656565656572  1 0.04955 0.5363636363636372  1 0.04955 0.5661616161616169  1 0.04955 0.5959595959595969  1 0.04955 0.6257575757575765  1 0.04955 0.6555555555555564  1 0.04955 0.6853535353535362  1 0.04955 0.7151515151515158  1 0.04955 0.7449494949494958  1 0.04955 0.7747474747474755 
[...]
<PointData  Vectors="Displacement"> 
<DataArray  type="Float64"  Name="Displacement"  NumberOfComponents="3" format="ascii">0.0000000000000000e+00 0.0000000000000000e+00 0.0000000000000000e+00  0.0000000000000000e+00 0.0000000000000000e+00 0.0000000000000000e+00  7.5609364661061453e-05 -5.7487629339418485e-03 8.2098145958106210e-06  7.5707164115937093e-05 -5.7730995587772591e-03 -2.4207390478599403e-05  0.0000000000000000e+00 0.0000000000000000e+00 0.0000000000000000e+00  0.0000000000000000e+00 0.0000000000000000e+00 0.0000000000000000e+00  0.0000000000000000e+00 0.0000000000000000e+00 0.0000000000000000e+00  0.0000000000000000e+00 0.0000000000000000e+00 0.0000000000000000e+00  0.0000000000000000e+00 0.0000000000000000e+00 0.0000000000000000e+00  0.0000000000000000e+00 0.0000000000000000e+00 0.0000000000000000e+00  0.0000000000000000e+00 0.0000000000000000e+00 0.0000000000000000e+00  0.0000000000000000e+00 0.0000000000000000e+00 0.0000000000000000e+00  0.0000000000000000e+00 0.0000000000000000e+00 0.0000000000000000e+00  0.0000000000000000e+00 0.0000000000000000e+00 0.0000000000000000e+00  0.0000000000000000e+00 0.0000000000000000e+00 0.0000000000000000e+00  0.0000000000000000e+00 0.0000000000000000e+00 0.0000000000000000e+00  0.0000000000000000e+00 0.0000000000000000e+00 0.0000000000000000e+00  0.0000000000000000e+00 0.0000000000000000e+00 0.0000000000000000e+00  0.0000000000000000e+00 0.0000000000000000e+00 0.0000000000000000e+00  0.0000000000000000e+00 0.0000000000000000e+00 0.0000000000000000e+00  0.0000000000000000e+00 0.0000000000000000e+00 0.0000000000000000e+00  0.0000000000000000e+00 0.0000000000000000e+00 0.0000000000000000e+00  0.0000000000000000e+00 0.0000000000000000e+00 0.0000000000000000e+00  0.0000000000000000e+00 0.0000000000000000e+00 0.0000000000000000e+00  0.0000000000000000e+00 0.0000000000000000e+00 0.0000000000000000e+00  0.0000000000000000e+00 0.0000000000000000e+00 0.0000000000000000e+00  0.0000000000000000e+00 0.0000000000000000e+00 0.0000000000000000e+00  0.0000000000000000e+00 0.0000000000000000e+00 0.0000000000000000e+00  0.0000000000000000e+00 0.0000000000000000e+00 0.0000000000000000e+00  0.0000000000000000e+00 0.0000000000000000e+00 0.0000000000000000e+00  0.0000000000000000e+00 0.0000000000000000e+00 0.0000000000000000e+00  0.0000000000000000e+00 0.0000000000000000e+00 0.0000000000000000e+00  0.0000000000000000e+00 0.0000000000000000e+00 0.0000000000000000e+00  0.0000000000000000e+00 0.0000000000000000e+00 0.0000000000000000e+00  0.0000000000000000e+00 0.0000000000000000e+00 0.0000000000000000e+00  0.0000000000000000e+00 0.0000000000000000e+00 0.0000000000000000e+00  0.0000000000000000e+00 0.0000000000000000e+00 0.0000000000000000e+00  -5.0167279167646304e-08 1.0999184240958475e-06 1.3773946869069559e-07  1.2690710823030636e-07 5.8142246567335585e-07 5.8183164024225088e-07  3.2464458024640698e-07 -1.6220747911192360e-06 1.0910445771019106e-06  5.4363239564701518e-07 -5.9874689368381626e-06 1.2432696922638061e-06  5.2179466968254906e-07 -1.2477249200814824e-05 1.4362960290408732e-06  7.9936951859097826e-07 -2.1293080868578412e-05 1.5737679028647487e-06  9.3278837321650316e-07 -3.2628787161113798e-05 1.6087258007846432e-06  1.0569159006073263e-06 -4.5811397463432839e-05 2.0731549412207502e-06  1.3446751429856650e-06 -6.1176758399928333e-05 2.2550621912764000e-06  1.4826179907179358e-06 -7.8906323323170679e-05 2.4011229075881314e-06  1.8839147948184714e-06 -9.8531377979432932e-05 2.6248061770597342e-06  2.3089250911119088e-06 -1.2017365131704342e-04 2.6863499941356823e-06  2.4556565595422842e-06 -1.4407321658856421e-04 2.9043771795803091e-06  2.8505383756437646e-06 -1.6964231209161811e-04 2.6023528040283152e-06  3.0448577264304728e-06 -1.9710653840090896e-04 3.0791978613698238e-06  3.5720121093667848e-06 -2.2660083421876913e-04 3.0254330221460370e-06  3.9418046542557153e-06 -2.5735138865876057e-04 3.2582011283319250e-06  4.2132608224519704e-06 -2.9068867773700307e-04 3.4816207964217664e-06  4.8379484471520229e-06 -3.2556050177694109e-04 3.7283561472503029e-06  5.2540166115437327e-06 -3.6197074151827444e-04 3.4630929579331323e-06  5.7203481872012276e-06 -3.9957948729408958e-04 3.9874403177941228e-06  6.1704132301388678e-06 -4.3869695484593108e-04 4.4731945148464045e-06  7.0172742901869523e-06 -4.7943846479711204e-04 4.5067520365908917e-06  7.3528818759315922e-06 -5.2146371139001862e-04 4.6056372405998611e-06  8.1273971089243099e-06 -5.6478788856874384e-04 4.7137607589543789e-06  8.8000591218289760e-06 -6.0946117981670802e-04 4.4665992448689456e-06  9.1664598635505308e-06 -6.5593129875318441e-04 4.4322639224807430e-06  9.6534965359459205e-06 -7.0352551436783162e-04 4.8257505525228224e-06  1.0304980848105902e-05 -7.5273223270891669e-04 5.0797991171046883e-06  1.1052876079098051e-05 -8.0301255111700802e-04 5.2768998684543631e-06  1.1670729459515605e-05 -8.5430626984094396e-04 5.4422227683125591e-06  1.2390244578950154e-05 -9.0674689530506982e-04 5.5903600269745092e-06  1.3158833563667658e-05 -9.6046195291633353e-04 5.6365730913071226e-06  1.3895398895004240e-05 -1.0153716490922484e-03 5.4805960789202124e-06  1.4461292031729739e-05 -1.0709757550715297e-03 5.5763743566623986e-06  1.5119389456143767e-05 -1.1277219559939090e-03 5.9483907130341026e-06  1.6044281744833580e-05 -1.1855561946342204e-03 6.0393960856051570e-06  1.6825404518378693e-05 -1.2443894810102575e-03 6.0488839658152311e-06  1.7599132635588268e-05 -1.3041676390079656e-03 5.9287060715123391e-06  1.8252224523248325e-05 -1.3645315588278644e-03 6.1536931188820652e-06  1.9061908555411162e-05 -1.4258536797085838e-03 6.3274974519022139e-06  1.9948689446070411e-05 -1.4883658972094716e-03 6.5067778520570094e-06  2.0658665494172727e-05 -1.5516790678501303e-03 6.6370979789263004e-06  2.1621217556763937e-05 -1.6157763791443324e-03 6.7028307679206892e-06  2.2487286852174924e-05 -1.6807024586762737e-03 6.7245899046545351e-06  2.3300885287017597e-05 -1.7463737759592544e-03 6.7382751027581640e-06  2.4188416365522260e-05 -1.8126286881715956e-03 6.6097281479210290e-06  2.5019305148793758e-05 -1.8796046309849737e-03 6.7621742217278849e-06  2.5841585840134717e-05 -1.9471453094028731e-03 6.8356481007963285e-06  2.6775135122558586e-05 -2.0154074816715996e-03 6.9487517842721990e-06  2.7642539409095624e-05 -2.0844225068235981e-03 7.1667633410516796e-06  2.8568794550729442e-05 -2.1539394010441438e-03 7.2580220956897228e-06  2.9563521968554494e-05 -2.2240923178301914e-03 7.1326600301318885e-06  3.0378416525749739e-05 -2.2946615742939478e-03 7.1946507089357912e-06  3.1378663569729374e-05 -2.3658183530415955e-03 7.2091894382723799e-06  3.2242523442081557e-05 -2.4374793110272558e-03 7.2730829120217397e-06  3.3171427473790650e-05 -2.5095071562916890e-03 7.3626202274242714e-06  3.4084972906732222e-05 -2.5820274129411029e-03 7.5561430218636234e-06  3.5110663166771417e-05 -2.6549643865128826e-03 7.6068666228191488e-06  3.6095784903906321e-05 -2.7282692801978516e-03 7.5161212511447503e-06  3.6979008578594242e-05 -2.8019834224471238e-03 7.5550313407387553e-06  3.7910663239841440e-05 -2.8761456783020800e-03 7.7435923139278503e-06  3.8980571688564045e-05 -2.9506970258520808e-03 7.7442543079095805e-06  3.9977702260618947e-05 -3.0256029491841667e-03 7.6945337356629285e-06  4.0914752213795838e-05 -3.1008196805328968e-03 7.7072795650549227e-06  4.1886168918793522e-05 -3.1762909027247721e-03 7.8354716911356664e-06  4.2854680285697423e-05 -3.2520651330401038e-03 7.9076996254959331e-06  4.3903366263395870e-05 -3.3280383622175257e-03 7.9201472005026453e-06  4.4863669455548343e-05 -3.4043193863764511e-03 7.9542931327449082e-06  4.5910765100148573e-05 -3.4808271376074325e-03 7.9682747768158236e-06  4.6927990535439790e-05 -3.5575688698600344e-03 7.9189130740381049e-06  4.7900459878797694e-05 -3.6345666488603501e-03 7.9348926100921421e-06  4.8895725968691322e-05 -3.7117128188790456e-03 8.0280418574317172e-06  4.9893846062697276e-05 -3.7890280246980698e-03 8.0540079548253406e-06  5.0930916469081880e-05 -3.8665445484881628e-03 8.0817324226413379e-06  5.1947297075423081e-05 -3.9441816825316126e-03 8.0792786776702279e-06  5.2962674902264336e-05 -4.0219515356543466e-03 8.0927679305034596e-06  5.3999225765676650e-05 -4.0998597735372039e-03 8.0785775258961479e-06  5.5016307000747926e-05 -4.1778820081281543e-03 8.0945425483386420e-06  5.6027976578986837e-05 -4.2560144986701631e-03 8.1226023777621437e-06  5.7041357684121354e-05 -4.3342120299630898e-03 8.1545765394217948e-06  5.8085185095417790e-05 -4.4125115549306588e-03 8.1672660468973708e-06  5.9102453635029779e-05 -4.4908677128577424e-03 8.1700176604894307e-06  6.0137974241163062e-05 -4.5692896712704913e-03 8.1756062193777622e-06  6.1169612194019826e-05 -4.6477626275199177e-03 8.1744427034721612e-06  6.2204331886569675e-05 -4.7262883179159405e-03 8.1720971263921466e-06  6.3229177059169749e-05 -4.8048507221042014e-03 8.1862240973181974e-06  6.4253367294822049e-05 -4.8834485467802585e-03 8.1969097621868570e-06  6.5290395623319580e-05 -4.9620743631715366e-03 8.1990686757642896e-06  6.6325917817734790e-05 -5.0407151352384917e-03 8.1975885161141626e-06  6.7358209305471529e-05 -5.1193732618364900e-03 8.2019694706828415e-06  6.8385508582048047e-05 -5.1980401627056607e-03 8.2079910291556419e-06  6.9417254407386951e-05 -5.2767158100018524e-03 8.2096101890568365e-06  7.0451107710837340e-05 -5.3553958606041051e-03 8.2100629190894867e-06  7.1484067426557592e-05 -5.4340737357941697e-03 8.2102795458091450e-06  7.2514787048561974e-05 -5.5127504848619625e-03 8.2094486447225475e-06  7.3547779527419928e-05 -5.5914249985210777e-03 8.2096760625995733e-06  7.4578734033100568e-05 -5.6700959505999130e-03 8.2097232828660191e-06  7.5815303495022752e-05 -5.7724690175440484e-03 -9.7429380698038701e-06  7.5912328404172618e-05 -5.7718220342962492e-03 2.9611690218956987e-06  7.6004548233986270e-05 -5.7711555499405575e-03 1.4640169642485694e-05  7.6092868796793543e-05 -5.7704756261683270e-03 2.5833535514984365e-05  7.6175433900803276e-05 -5.7697921323897157e-03 3.6467832718710950e-05  7.6250887029001679e-05 -5.7691109671237787e-03 4.6363219827931442e-05  7.6324527171268806e-05 -5.7684283311738287e-03 5.6037010290525924e-05  7.6394416689145578e-05 -5.7677451998187365e-03 6.5122266562979349e-05  7.6456940979076248e-05 -5.7670606671303181e-03 7.3477834964496294e-05  7.6517970774123847e-05 -5.7663750261510690e-03 8.1344142979567746e-05  7.6573106750143366e-05 -5.7656813866526239e-03 8.8720756320808991e-05  7.6623707722366417e-05 -5.7649834554965073e-03 9.5293392470537715e-05  7.6668063191913133e-05 -5.7642793713072226e-03 1.0124509219077786e-04  7.6708595386727209e-05 -5.7635767911609296e-03 1.0652302444215407e-04  7.6741487745434715e-05 -5.7628661486195075e-03 1.1101971815246224e-04  7.6770795983788144e-05 -5.7621528033503702e-03 1.1470094725670742e-04  7.6794403274860293e-05 -5.7614329383597089e-03 1.1789396048384353e-04  7.6814699344312549e-05 -5.7607074701912283e-03 1.2058928265392370e-04  7.6830355461755348e-05 -5.7599754543956969e-03 1.2260192254520900e-04  7.6839682165845514e-05 -5.7592390347943586e-03 1.2394704912272101e-04  7.6846419871561878e-05 -5.7584990899436075e-03 1.2507311218344503e-04  7.6847056386342215e-05 -5.7577530533220317e-03 1.2548396490376403e-04  7.6845158836119889e-05 -5.7570006856439643e-03 1.2554493193459666e-04  7.6839713281782787e-05 -5.7562426721880708e-03 1.2511555859635163e-04  7.6824979731558029e-05 -5.7554807554137553e-03 1.2387520978747300e-04  7.6801855735523456e-05 -5.7547134940004211e-03 1.2184710419856613e-04  7.6768089023686014e-05 -5.7539415457956745e-03 1.1875011586864004e-04  7.6726730694582637e-05 -5.7531651387225206e-03 1.1492136763367007e-04  7.6672146792703305e-05 -5.7523846734668311e-03 1.0997816587657643e-04  7.6600112872013553e-05 -5.7516014302303525e-03 1.0344895230570574e-04  7.6504654439022584e-05 -5.7508195963859796e-03 9.4736656947881507e-05  7.6370865471178233e-05 -5.7500395020416784e-03 8.2215215182701720e-05  7.6158124485776788e-05 -5.7492766376516357e-03 6.2012712740368260e-05  -2.6627115556139530e-07 5.9740323454261954e-07 -3.5525323790793655e-08  -4.8897892430755649e-07 1.9139021578482768e-07 -2.3268440970305738e-07  -5.6927881332483905e-07 -7.9136060598265307e-07 -7.4540608977204507e-07  -4.2446339504847248e-07 -4.8969982199692474e-06 -1.6235114683016364e-06  9.2916847205622064e-09 -9.5575998718075517e-06 -2.4279344209156591e-06  1.8362103869977874e-07 -1.4874918879980669e-05 -2.6817716594074399e-06  3.5092279532566002e-07 -2.5403292598491237e-05 -3.0545049327834536e-06  5.9075618852243692e-07 -3.6539366426318965e-05 -3.4770706714856219e-06  4.4862632061536611e-07 -4.9511281759162348e-05 -3.8365430159655001e-06  7.4364995695640546e-07 -6.4506020764408837e-05 -4.5962836604612924e-06  1.4503410755072477e-06 -8.2141576460372531e-05 -5.6034201358070796e-06  2.1400749719216934e-06 -1.0059891430294786e-04 -6.6314813674823893e-06  2.9352480612768871e-06 -1.1999922825577039e-04 -7.6094060560370334e-06  2.8618499004131192e-06 -1.4521693488345297e-04 -7.7360915408951018e-06  3.3857896486448961e-06 -1.7209552480861880e-04 -8.1859175603164185e-06  3.6711537093449332e-06 -1.9921792314423590e-04 -8.8848630233501444e-06  4.1043553365980025e-06 -2.2937421629035329e-04 -9.5128915524842994e-06  4.4808840207036622e-06 -2.6224441109827193e-04 -1.0529060841858199e-05  4.8618179664533413e-06 -2.9750155646018455e-04 -1.1634637943481973e-05  5.4805938773962939e-06 -3.3506034311830756e-04 -1.1900359157403953e-05  5.7231093758903901e-06 -3.7412414844111409e-04 -1.2136769590810308e-05  6.2060952238637143e-06 -4.1378117555182725e-04 -1.2574648190764652e-05  6.7901125673371513e-06 -4.5455077077053200e-04 -1.2886169773682210e-05  7.2744143426737502e-06 -4.9704859040050674e-04 -1.3396073063652788e-05  7.9450549103527160e-06 -5.4092984964499140e-04 -1.3988089330635874e-05  8.4243458834513945e-06 -5.8628555518290028e-04 -1.4036280343742601e-05  9.0396676128097083e-06 -6.3350253957586205e-04 -1.4970869188815951e-05  9.5561351476572217e-06 -6.8290663315160444e-04 -1.5386174992666375e-05  1.0195121702345950e-05 -7.3297628243931096e-04 -1.5841393575920704e-05  1.1083507600057385e-05 -7.8440964266973028e-04 -1.6386407368432852e-05  1.1819583026332592e-05 -8.3615157087663474e-04 -1.6652852234947363e-05  1.2466826139816593e-05 -8.8894881273005727e-04 -1.6711006858126300e-05  1.3223585825173081e-05 -9.4306913712625224e-04 -1.7178938935939358e-05  1.3874402792627116e-05 -9.9855907104800926e-04 -1.7593313780737771e-05  1.4514857915438157e-05 -1.0555125561930606e-03 -1.7601327703615518e-05  1.5322859588222061e-05 -1.1128967064429082e-03 -1.8145332832099595e-05  1.6188209639887374e-05 -1.1705699884883096e-03 -1.8202997119668022e-05  1.7037869914751622e-05 -1.2302824397814284e-03 -1.8521299994912210e-05  1.7747176987888126e-05 -1.2909259353503951e-03 -1.8958234816495929e-05  1.8596125375774195e-05 -1.3523011535694982e-03 -1.9293754852807133e-05  1.9344752332387140e-05 -1.4156427279614873e-03 -1.9679935142783585e-05  2.0140411888895793e-05 -1.4795140054267362e-03 -1.9883912464869107e-05  2.0972199218573646e-05 -1.5440495850677718e-03 -2.0184585880675038e-05  2.1813129144204258e-05 -1.6088871664481147e-03 -2.0263348625438240e-05  2.2669392367495752e-05 -1.6749102680779315e-03 -2.0354803036803407e-05  2.3531494812945712e-05 -1.7413117029622600e-03 -2.0596390657316569e-05  2.4301871080622703e-05 -1.8086882609940035e-03 -2.0762482923084414e-05  2.5180884624706962e-05 -1.8763180149065689e-03 -2.0900594539564092e-05  2.5991812043818861e-05 -1.9445697014517111e-03 -2.1198837923780857e-05  2.6999624337597779e-05 -2.0138193865628464e-03 -2.1407147144896928e-05  2.7888138644235207e-05 -2.0836121778483024e-03 -2.1567326995708917e-05  2.8738012563812063e-05 -2.1539659285545916e-03 -2.1856527508081726e-05  2.9644860203813761e-05 -2.2249554392416884e-03 -2.2060154192620456e-05  3.0574352779179169e-05 -2.2965134643770160e-03 -2.2082220218320389e-05  3.1462809967980529e-05 -2.3685195804281438e-03 -2.2288998156535108e-05  3.2403076910919190e-05 -2.4411011052723119e-03 -2.2450053702257163e-05  3.3404269430872680e-05 -2.5138157966566967e-03 -2.2568739220512972e-05  3.4306895113446167e-05 -2.5875036545675435e-03 -2.2700283800777867e-05  3.5197545606899730e-05 -2.6618070804757315e-03 -2.2811769096144246e-05  3.6108721700710126e-05 -2.7363696109810095e-03 -2.2987505955494147e-05  3.7056866024179580e-05 -2.8111228870072030e-03 -2.3093013636963070e-05  3.8044764027891149e-05 -2.8861936203554588e-03 -2.3186197618582920e-05  3.9061021622069286e-05 -2.9612828910177379e-03 -2.3280677584910246e-05  4.0049582347697248e-05 -3.0366578185763312e-03 -2.3316370544680905e-05  4.1050428610525579e-05 -3.1122038491136943e-03 -2.3424706330737431e-05  4.2017801178409959e-05 -3.1883944728998423e-03 -2.3480018261957094e-05  4.3025184204976090e-05 -3.2646446994981071e-03 -2.3540052844166510e-05  4.4021336518273667e-05 -3.3412214675247872e-03 -2.3619431328537359e-05  4.4996977301807915e-05 -3.4181990967658287e-03 -2.3707612792904272e-05  4.6011799530337685e-05 -3.4953875549604400e-03 -2.3762913666010553e-05  4.6954332382287781e-05 -3.5728947423474058e-03 -2.3863870303722005e-05  4.7991247724942449e-05 -3.6503751997560745e-03 -2.3906939170672975e-05  4.8998087871777895e-05 -3.7281249334644127e-03 -2.3937538419333157e-05  5.0007606992671272e-05 -3.8059136555248867e-03 -2.3988939339408701e-05  5.1001372530831800e-05 -3.8840136172897705e-03 -2.4051035507730651e-05  5.2007250458284353e-05 -3.9621573850840853e-03 -2.4096296481172171e-05  5.3031862418013530e-05 -4.0404563050862857e-03 -2.4107289955775466e-05  5.4042121583234666e-05 -4.1188058182691197e-03 -2.4119813249074193e-05  5.5057543725928259e-05 -4.1973215718174774e-03 -2.4147552434601890e-05  5.6074427219281773e-05 -4.2759167683501442e-03 -2.4167101986463356e-05  5.7099672151465261e-05 -4.3545203142174894e-03 -2.4182477789515573e-05  5.8120707098234815e-05 -4.4331951613077120e-03 -2.4204716710317133e-05  5.9146300482189782e-05 -4.5118877744921041e-03 -2.4224093747553076e-05  6.0187131672917820e-05 -4.5906456412162736e-03 -2.4219847388477025e-05  6.1224542813745553e-05 -4.6694297682141608e-03 -2.4224324941973831e-05  6.2245772684153732e-05 -4.7482791177596911e-03 -2.4226934974033811e-05  6.3270535435637609e-05 -4.8271528415316321e-03 -2.4235198872183625e-05  6.4303181838516166e-05 -4.9060152563365602e-03 -2.4235205499152614e-05  6.5341756477373916e-05 -4.9848802500760325e-03 -2.4232511746526266e-05  6.6369032837450533e-05 -5.0637793587572331e-03 -2.4236017992417343e-05  6.7402400119897680e-05 -5.1426468031672123e-03 -2.4227332895123722e-05  6.8442397841034320e-05 -5.2214832452388369e-03 -2.4227303683363501e-05  6.9480105775163834e-05 -5.3003135048573452e-03 -2.4224383077895845e-05  7.0516641491644730e-05 -5.3791439832577229e-03 -2.4218345661968430e-05  7.1555311099174743e-05 -5.4579521896451974e-03 -2.4214795286199867e-05  7.2589387052707870e-05 -5.5367536292604139e-03 -2.4207472525368447e-05  7.3625417676468675e-05 -5.6155560744099529e-03 -2.4205074243798449e-05  7.4664640400110412e-05 -5.6943300388940798e-03 -2.4206677563537945e-05  7.5086840586723849e-05 -5.7493180279575675e-03 -4.4377758195431994e-05  7.4850939656233442e-05 -5.7500743666361537e-03 -6.8863993474127991e-05  7.4717351004296629e-05 -5.7508536604820096e-03 -8.3411597716588455e-05  7.4619057375369224e-05 -5.7516358174520233e-03 -9.4515073095270029e-05  7.4545894906876819e-05 -5.7524175706325127e-03 -1.0331340574715220e-04  7.4491433999649846e-05 -5.7531972415299669e-03 -1.1054316078307025e-04  7.4448413348714607e-05 -5.7539730081847028e-03 -1.1670431237532415e-04  7.4421142832448435e-05 -5.7547439372675306e-03 -1.2153068325082321e-04  7.4403021245744380e-05 -5.7555110291746016e-03 -1.2538572176987750e-04  7.4396486734944176e-05 -5.7562731946628710e-03 -1.2839615532243495e-04  7.4397803634963615e-05 -5.7570294506483453e-03 -1.3062434441957495e-04  7.4404870114738318e-05 -5.7577812943425998e-03 -1.3226527281433033e-04  7.4418956381262574e-05 -5.7585277402929609e-03 -1.3319008976