<?xml version="1.0"?>
<VTKFile type="UnstructuredGrid"  version="0.1"  >
<UnstructuredGrid>
<Piece  NumberOfPoints="10958" NumberOfCells="41820">
<Points>
<DataArray  type="Float64"  NumberOfComponents="3"  format="ascii">1 0.04955 0  3.483770450905253e-06 0.04864772283650545 0  3.483770450905253e-06 0.04864772283650545 2.95  1 0.04955 2.95  0.9705745651584323 0.0546328692740541 0  0.9410403409854562 0.05904933268918263 0  0.9114506936029688 0.06307764259166145 0  0.8818365365778597 0.06692205633990718 0  0.852195425756178 0.07055529100758898 0  0.8225213484314672 0.07390813590379837 0  0.7928382076274137 0.07717791230068967 0  0.7631311412584285 0.08022519712851128 0  0.7333970986343074 0.08299595685799818 0  0.7036468593402103 0.08558339900696151 0  0.6738808305098906 0.08798485813956464 0  0.6440919092681797 0.09008334865923617 0  0.6142870835549664 0.09194561288677774 0  0.5844675933514397 0.09355367701932085 0  0.5546335832429207 0.09486496269114339 0  0.5247876530181904 0.095868659884793 0  0.4949363523436856 0.09668736484019783 0  0.4650802095563029 0.09731740696399105 0  0.4352195800941197 0.09768943189876603 0  0.405357042743103 0.09780828360274334 0  0.3754942534896675 0.09784351677757946 0  0.3456322298379585 0.09760772238205492 0  0.3157719755355017 0.09723970101506153 0  0.2859142869264596 0.09668561931752166 0  0.2560638915081948 0.09582390318294828 0  0.2262236143831659 0.09466390431188013 0  0.1964020995566796 0.09309886371899376 0  0.1665963941161298 0.09125714074218327 0  0.1368197180220126 0.08899319787719009 0  0.1070946678970156 0.08612945256268216 0  0.07746305623222323 0.08244010579101241 0  0.04805012948181673 0.07731042839253653 0  0.01932358256457366 0.06928107812002522 0  3.483770450905253e-06 0.04864772283650545 0.02979797979797999  3.483770450905253e-06 0.04864772283650545 0.05959595959595966  3.483770450905253e-06 0.04864772283650545 0.08939393939393965  3.483770450905253e-06 0.04864772283650545 0.1191919191919193  3.483770450905253e-06 0.04864772283650545 0.1489898989898993  3.483770450905253e-06 0.04864772283650545 0.178787878787879  3.483770450905253e-06 0.04864772283650545 0.2085858585858589  3.483770450905253e-06 0.04864772283650545 0.2383838383838386  3.483770450905253e-06 0.04864772283650545 0.2681818181818186  3.483770450905253e-06 0.04864772283650545 0.2979797979797986  3.483770450905253e-06 0.04864772283650545 0.3277777777777782  3.483770450905253e-06 0.04864772283650545 0.3575757575757582  3.483770450905253e-06 0.04864772283650545 0.3873737373737379  3.483770450905253e-06 0.04864772283650545 0.4171717171717179  3.483770450905253e-06 0.04864772283650545 0.4469696969696979  3.483770450905253e-06 0.04864772283650545 0.4767676767676775  3.483770450905253e-06 0.04864772283650545 0.5065656565656572  3.483770450905253e-06 0.04864772283650545 0.5363636363636372  3.483770450905253e-06 0.04864772283650545 0.5661616161616169  3.483770450905254e-06 0.04864772283650545 0.5959595959595969  3.483770450905253e-06 0.04864772283650545 0.6257575757575765  3.483770450905254e-06 0.04864772283650545 0.6555555555555564  3.483770450905253e-06 0.04864772283650545 0.6853535353535362  3.483770450905253e-06 0.04864772283650545 0.7151515151515158  3.483770450905253e-06 0.04864772283650545 0.7449494949494958  3.483770450905253e-06 0.04864772283650545 0.7747474747474755  3.483770450905253e-06 0.04864772283650545 0.8045454545454552  3.483770450905253e-06 0.04864772283650545 0.8343434343434351  3.483770450905253e-06 0.04864772283650545 0.8641414141414151  3.483770450905253e-06 0.04864772283650545 0.8939393939393945  3.483770450905254e-06 0.04864772283650545 0.9237373737373745  3.483770450905253e-06 0.04864772283650545 0.9535353535353545  3.483770450905254e-06 0.04864772283650545 0.9833333333333341  3.483770450905253e-06 0.04864772283650545 1.013131313131314  3.483770450905254e-06 0.04864772283650545 1.042929292929294  3.483770450905253e-06 0.04864772283650545 1.072727272727274  3.483770450905254e-06 0.04864772283650545 1.102525252525254  3.483770450905253e-06 0.04864772283650545 1.132323232323234  3.483770450905254e-06 0.04864772283650545 1.162121212121214  3.483770450905253e-06 0.04864772283650545 1.191919191919194  3.483770450905254e-06 0.04864772283650545 1.221717171717174  3.483770450905253e-06 0.04864772283650545 1.251515151515153  3.483770450905254e-06 0.04864772283650545 1.281313131313133  3.483770450905253e-06 0.04864772283650545 1.311111111111113  3.483770450905253e-06 0.04864772283650545 1.340909090909093  3.483770450905253e-06 0.04864772283650545 1.370707070707073  3.483770450905253e-06 0.04864772283650545 1.400505050505053  3.483770450905253e-06 0.04864772283650545 1.430303030303033  3.483770450905253e-06 0.04864772283650545 1.460101010101013  3.483770450905253e-06 0.04864772283650545 1.489898989898993  3.483770450905253e-06 0.04864772283650545 1.519696969696973  3.483770450905253e-06 0.04864772283650545 1.549494949494953  3.483770450905253e-06 0.04864772283650545 1.579292929292933  3.483770450905253e-06 0.04864772283650545 1.609090909090913  3.483770450905253e-06 0.04864772283650545 1.638888888888893  3.483770450905254e-06 0.04864772283650545 1.668686868686872  3.483770450905253e-06 0.04864772283650545 1.698484848484852  3.483770450905254e-06 0.04864772283650545 1.728282828282832  3.483770450905253e-06 0.04864772283650545 1.758080808080812  3.483770450905254e-06 0.04864772283650545 1.787878787878792  3.483770450905253e-06 0.04864772283650545 1.817676767676772  3.483770450905254e-06 0.04864772283650545 1.847474747474752  3.483770450905253e-06 0.04864772283650545 1.877272727272732  3.483770450905254e-06 0.04864772283650545 1.907070707070712  3.483770450905253e-06 0.04864772283650545 1.936868686868691  3.483770450905253e-06 0.04864772283650545 1.966666666666671  3.483770450905253e-06 0.04864772283650545 1.996464646464651  3.483770450905253e-06 0.04864772283650545 2.02626262626263  3.483770450905253e-06 0.04864772283650545 2.056060606060611  3.483770450905253e-06 0.04864772283650545 2.08585858585859  3.483770450905254e-06 0.04864772283650545 2.11565656565657  3.483770450905253e-06 0.04864772283650545 2.14545454545455  3.483770450905253e-06 0.04864772283650545 2.175252525252529  3.483770450905253e-06 0.04864772283650545 2.205050505050508  3.483770450905253e-06 0.04864772283650545 2.234848484848488  3.483770450905253e-06 0.04864772283650545 2.264646464646468  3.483770450905253e-06 0.04864772283650545 2.294444444444448  3.483770450905253e-06 0.04864772283650545 2.324242424242427  3.483770450905253e-06 0.04864772283650545 2.354040404040407  3.483770450905253e-06 0.04864772283650545 2.383838383838387  3.483770450905254e-06 0.04864772283650545 2.413636363636366  3.483770450905253e-06 0.04864772283650545 2.443434343434346  3.483770450905253e-06 0.04864772283650545 2.473232323232326  3.483770450905253e-06 0.04864772283650545 2.503030303030305  3.483770450905253e-06 0.04864772283650545 2.532828282828285  3.483770450905253e-06 0.04864772283650545 2.562626262626264  3.483770450905253e-06 0.04864772283650545 2.592424242424244  3.483770450905254e-06 0.04864772283650545 2.622222222222224  3.483770450905253e-06 0.04864772283650545 2.652020202020203  3.483770450905253e-06 0.04864772283650545 2.681818181818183  3.483770450905253e-06 0.04864772283650545 2.711616161616163  3.483770450905253e-06 0.04864772283650545 2.741414141414142  3.483770450905254e-06 0.04864772283650545 2.771212121212122  3.483770450905253e-06 0.04864772283650545 2.801010101010102  3.483770450905253e-06 0.04864772283650545 2.830808080808081  3.483770450905253e-06 0.04864772283650545 2.860606060606061  3.483770450905253e-06 0.04864772283650545 2.890404040404041  3.483770450905253e-06 0.04864772283650545 2.92020202020202  0.9705745651584323 0.0546328692740541 2.95  0.9410403409854562 0.05904933268918263 2.95  0.9114506936029688 0.06307764259166145 2.95  0.8818365365778597 0.06692205633990718 2.95  0.852195425756178 0.07055529100758898 2.95  0.8225213484314672 0.07390813590379837 2.95  0.7928382076274137 0.07717791230068967 2.95  0.7631311412584285 0.08022519712851128 2.95  0.7333970986343074 0.08299595685799818 2.95  0.7036468593402103 0.08558339900696151 2.95  0.6738808305098906 0.08798485813956464 2.95  0.6440919092681797 0.09008334865923617 2.95  0.6142870835549664 0.09194561288677774 2.95  0.5844675933514397 0.09355367701932085 2.95  0.5546335832429207 0.09486496269114339 2.95  0.5247876530181904 0.095868659884793 2.95  0.4949363523436856 0.09668736484019783 2.95  0.4650802095563029 0.09731740696399105 2.95  0.4352195800941197 0.09768943189876603 2.95  0.405357042743103 0.09780828360274334 2.95  0.3754942534896675 0.09784351677757946 2.95  0.3456322298379585 0.09760772238205492 2.95  0.3157719755355017 0.09723970101506153 2.95  0.2859142869264596 0.09668561931752166 2.95  0.2560638915081948 0.09582390318294828 2.95  0.2262236143831659 0.09466390431188013 2.95  0.1964020995566796 0.09309886371899376 2.95  0.1665963941161298 0.09125714074218327 2.95  0.1368197180220126 0.08899319787719009 2.95  0.1070946678970156 0.08612945256268216 2.95  0.07746305623222323 0.08244010579101241 2.95  0.04805012948181673 0.07731042839253653 2.95  0.01932358256457366 0.06928107812002522 2.95  1 0.04955 0.02979797979797999  1 0.04955 0.05959595959595966  1 0.04955 0.08939393939393965  1 0.04955 0.1191919191919193  1 0.04955 0.1489898989898993  1 0.04955 0.178787878787879  1 0.04955 0.2085858585858589  1 0.04955 0.2383838383838386  1 0.04955 0.2681818181818186  1 0.04955 0.2979797979797986  1 0.04955 0.3277777777777782  1 0.04955 0.3575757575757582  1 0.04955 0.3873737373737379  1 0.04955 0.4171717171717179  1 0.04955 0.4469696969696979  1 0.04955 0.4767676767676775  1 0.04955 0.5065656565656572  1 0.04955 0.5363636363636372  1 0.04955 0.5661616161616169  1 0.04955 0.5959595959595969  1 0.04955 0.6257575757575765  1 0.04955 0.6555555555555564  1 0.04955 0.6853535353535362  1 0.04955 0.7151515151515158  1 0.04955 0.7449494949494958  1 0.04955 0.7747474747474755 
[...]
<PointData  Vectors="Displacement"> 
<DataArray  type="Float64"  Name="Displacement"  NumberOfComponents="3" format="ascii">0.0000000000000000e+00 0.0000000000000000e+00 0.0000000000000000e+00  0.0000000000000000e+00 0.0000000000000000e+00 0.0000000000000000e+00  1.0117447370541308e-05 -8.3511801647738644e-04 8.7304923398711486e-07  1.0117221447554546e-05 -8.4130466603621877e-04 -2.7702130847992613e-06  0.0000000000000000e+00 0.0000000000000000e+00 0.0000000000000000e+00  0.0000000000000000e+00 0.0000000000000000e+00 0.0000000000000000e+00  0.0000000000000000e+00 0.0000000000000000e+00 0.0000000000000000e+00  0.0000000000000000e+00 0.0000000000000000e+00 0.0000000000000000e+00  0.0000000000000000e+00 0.0000000000000000e+00 0.0000000000000000e+00  0.0000000000000000e+00 0.0000000000000000e+00 0.0000000000000000e+00  0.0000000000000000e+00 0.0000000000000000e+00 0.0000000000000000e+00  0.0000000000000000e+00 0.0000000000000000e+00 0.0000000000000000e+00  0.0000000000000000e+00 0.0000000000000000e+00 0.0000000000000000e+00  0.0000000000000000e+00 0.0000000000000000e+00 0.0000000000000000e+00  0.0000000000000000e+00 0.0000000000000000e+00 0.0000000000000000e+00  0.0000000000000000e+00 0.0000000000000000e+00 0.0000000000000000e+00  0.0000000000000000e+00 0.0000000000000000e+00 0.0000000000000000e+00  0.0000000000000000e+00 0.0000000000000000e+00 0.0000000000000000e+00  0.0000000000000000e+00 0.0000000000000000e+00 0.0000000000000000e+00  0.0000000000000000e+00 0.0000000000000000e+00 0.0000000000000000e+00  0.0000000000000000e+00 0.0000000000000000e+00 0.0000000000000000e+00  0.0000000000000000e+00 0.0000000000000000e+00 0.0000000000000000e+00  0.0000000000000000e+00 0.0000000000000000e+00 0.0000000000000000e+00  0.0000000000000000e+00 0.0000000000000000e+00 0.0000000000000000e+00  0.0000000000000000e+00 0.0000000000000000e+00 0.0000000000000000e+00  0.0000000000000000e+00 0.0000000000000000e+00 0.0000000000000000e+00  0.0000000000000000e+00 0.0000000000000000e+00 0.0000000000000000e+00  0.0000000000000000e+00 0.0000000000000000e+00 0.0000000000000000e+00  0.0000000000000000e+00 0.0000000000000000e+00 0.0000000000000000e+00  0.0000000000000000e+00 0.0000000000000000e+00 0.0000000000000000e+00  0.0000000000000000e+00 0.0000000000000000e+00 0.0000000000000000e+00  0.0000000000000000e+00 0.0000000000000000e+00 0.0000000000000000e+00  0.0000000000000000e+00 0.0000000000000000e+00 0.0000000000000000e+00  0.0000000000000000e+00 0.0000000000000000e+00 0.0000000000000000e+00  0.0000000000000000e+00 0.0000000000000000e+00 0.0000000000000000e+00  0.0000000000000000e+00 0.0000000000000000e+00 0.0000000000000000e+00  0.0000000000000000e+00 0.0000000000000000e+00 0.0000000000000000e+00  -1.6090699517075959e-08 1.8143428967040074e-07 1.8348838023563264e-08  2.0815856000044965e-08 -2.1557085230620102e-08 1.1193748356254044e-07  5.8594207901018564e-08 -6.0151490959922156e-07 2.1709720690824718e-07  1.0721716802380942e-07 -1.6548767615244240e-06 2.3858178132772585e-07  9.9733159806672931e-08 -3.1615201453165822e-06 2.7223657454873486e-07  1.5454880584414213e-07 -5.1551985190047108e-06 2.9182542144750106e-07  1.8145296689053353e-07 -7.6616248612897707e-06 2.9048868416406122e-07  2.0218342733785727e-07 -1.0536915806916489e-05 3.7807761146263989e-07  2.5834169778218377e-07 -1.3846862537417218e-05 4.0640073931148548e-07  2.8560079129439152e-07 -1.7611505447885970e-05 4.2763339666707451e-07  3.5994734455820931e-07 -2.1734404673244935e-05 4.6271261456393669e-07  4.3853485275602224e-07 -2.6229479113383450e-05 4.6751777429460681e-07  4.6651525901645365e-07 -3.1132131970883467e-05 5.0306298822150207e-07  5.4171992171049948e-07 -3.6329674172029425e-05 4.4761910379137876e-07  5.7564932144166598e-07 -4.1855931813306425e-05 5.2529602919074967e-07  6.7367511183942821e-07 -4.7724357416547496e-05 5.1197452091274188e-07  7.3989085936719258e-07 -5.3803096017257662e-05 5.4943498997719212e-07  7.9244710467598948e-07 -6.0296251581875592e-05 5.8037704230322480e-07  8.9688473125093015e-07 -6.7027584494844201e-05 6.1571428151761116e-07  9.7819351532302543e-07 -7.3991477896701762e-05 5.7388891260478717e-07  1.0582271196343393e-06 -8.1132395444851135e-05 6.4941913562643120e-07  1.1333581283482677e-06 -8.8493051300111641e-05 7.1693939355110497e-07  1.2724723232502463e-06 -9.6083939031993583e-05 7.1634758893638377e-07  1.3365658921660587e-06 -1.0385012578730434e-04 7.2684245709670208e-07  1.4573557878111266e-06 -1.1178908492900511e-04 7.3775172178741469e-07  1.5708149643260187e-06 -1.1990334162752945e-04 7.0376256056303431e-07  1.6408494766907271e-06 -1.2824144304522943e-04 6.9935218520524689e-07  1.7265228138719465e-06 -1.3671458712963958e-04 7.4751397145402724e-07  1.8289700237185348e-06 -1.4537390332058109e-04 7.7414660333617212e-07  1.9459637928000104e-06 -1.5415036837743102e-04 7.9390420333198687e-07  2.0489396518421269e-06 -1.6303235519301594e-04 8.1112503323689894e-07  2.1597972013084754e-06 -1.7203317388736611e-04 8.2222131410664745e-07  2.2753879640880768e-06 -1.8116068116930014e-04 8.2343484639360045e-07  2.3933324533622856e-06 -1.9039975961095633e-04 8.0913514306149344e-07  2.4908242383193848e-06 -1.9969769738560817e-04 8.1594529034863713e-07  2.5921184384856467e-06 -2.0909790733841037e-04 8.4722903687263483e-07  2.7210580162333028e-06 -2.1858995034348562e-04 8.5288585439067696e-07  2.8395104207198401e-06 -2.2816089952690106e-04 8.5387157516077353e-07  2.9565285313010057e-06 -2.3780317863206557e-04 8.4371240786679028e-07  3.0619265723407094e-06 -2.4748121115121096e-04 8.5875591681214493e-07  3.1799736675152751e-06 -2.5722531947085789e-04 8.7118838129777042e-07  3.3018591603173440e-06 -2.6704616002446688e-04 8.8026958245790606e-07  3.4138559979380199e-06 -2.7691055472021763e-04 8.8735800251908284e-07  3.5392814299589675e-06 -2.8681730854883798e-04 8.8870997850495472e-07  3.6604576013573680e-06 -2.9676428140425974e-04 8.8881775518411669e-07  3.7785000732296862e-06 -3.0674298375116959e-04 8.8841650884910595e-07  3.9029170597281304e-06 -3.1674402781590549e-04 8.8350193596037498e-07  4.0201377524452865e-06 -3.2677240292258784e-04 8.9004489791335846e-07  4.1384063267228879e-06 -3.3681861914358109e-04 8.9237995547620282e-07  4.2617077051287673e-06 -3.4688726273930111e-04 8.9720735239930737e-07  4.3797193303263722e-06 -3.5697522702491107e-04 9.0181770636636150e-07  4.5012858659576261e-06 -3.6707368582320350e-04 9.0238451473362241e-07  4.6273131539083983e-06 -3.7718226980731592e-04 8.9993112509220281e-07  4.7455114868211342e-06 -3.8729544301115425e-04 9.0087093675755826e-07  4.8689463663499287e-06 -3.9741377407873476e-04 9.0234239092682118e-07  4.9902501174491914e-06 -4.0753296089543310e-04 9.0217912162145620e-07  5.1117799273182858e-06 -4.1765205709168958e-04 9.0333060226497810e-07  5.2315402472077092e-06 -4.2776862888942407e-04 9.0217291014836534e-07  5.3519831062436949e-06 -4.3788373479029710e-04 9.0115415322323815e-07  5.4761626428707177e-06 -4.4799452461603985e-04 9.0247490873809993e-07  5.5980970440030541e-06 -4.5809879283309501e-04 9.0199732549753068e-07  5.7179838738977740e-06 -4.6819461964772843e-04 8.9855914361885919e-07  5.8373790114169761e-06 -4.7828207862774333e-04 8.9813334393268318e-07  5.9593125158236494e-06 -4.8836007182189529e-04 8.9919123743435657e-07  6.0816911108904094e-06 -4.9842823782179240e-04 8.9965514213834648e-07  6.2014958795824959e-06 -5.0848637801793938e-04 8.9512935511319101e-07  6.3226917537901315e-06 -5.1853283785346514e-04 8.9241525068834383e-07  6.4411227182790843e-06 -5.2857012355735653e-04 8.9206743785712708e-07  6.5632015529016257e-06 -5.3859377679870248e-04 8.9036628311872190e-07  6.6807002261111401e-06 -5.4860592076430147e-04 8.8932698134836998e-07  6.8009662558555184e-06 -5.5860455948876693e-04 8.9213149924760088e-07  6.9227631885375126e-06 -5.6858768616842846e-04 8.9154911698976545e-07  7.0419505601165347e-06 -5.7856146084910443e-04 8.8641251705211622e-07  7.1624690546332463e-06 -5.8852420644005460e-04 8.8461985041212460e-07  7.2803281516267745e-06 -5.9847298374195819e-04 8.8272207453141985e-07  7.3999049425136742e-06 -6.0841162289306666e-04 8.8322320464342663e-07  7.5186543874001980e-06 -6.1833965030854809e-04 8.8203875815346836e-07  7.6367414826342587e-06 -6.2825590898292667e-04 8.8330606132322729e-07  7.7561469655738370e-06 -6.3816208229813278e-04 8.8263719653244985e-07  7.8754904548795850e-06 -6.4805772421117980e-04 8.8052248503023941e-07  7.9947904493920776e-06 -6.5794669952430032e-04 8.7756869052271822e-07  8.1116909830112136e-06 -6.6782542443615607e-04 8.7643566550014763e-07  8.2310403031490082e-06 -6.7769763220674897e-04 8.7627147715034756e-07  8.3484737037393664e-06 -6.8756263014048142e-04 8.7567531950136608e-07  8.4663493289345433e-06 -6.9742170576648328e-04 8.7590150668487792e-07  8.5841894351615603e-06 -7.0727429004888089e-04 8.7637936654008599e-07  8.7027886570038258e-06 -7.1712227476059388e-04 8.7514837350718694e-07  8.8212842512789520e-06 -7.2696553457077837e-04 8.7405937918201071e-07  8.9385796579804708e-06 -7.3680485390292751e-04 8.7387257567428751e-07  9.0561737121208319e-06 -7.4664173438567796e-04 8.7419859053481459e-07  9.1741267038000929e-06 -7.5647592072387523e-04 8.7390489113082441e-07  9.2923707544296394e-06 -7.6630844156444858e-04 8.7311823474470324e-07  9.4103089169946065e-06 -7.7613931041124230e-04 8.7292142954676523e-07  9.5279248095515933e-06 -7.8596916541009520e-04 8.7290239939488640e-07  9.6457127624845691e-06 -7.9579885433175509e-04 8.7296011496574524e-07  9.7636943424165160e-06 -8.0562838170556621e-04 8.7305202448610838e-07  9.8814673394731750e-06 -8.1545795011736836e-04 8.7307168316467531e-07  9.9994456633158557e-06 -8.2528777944780671e-04 8.7306345251578085e-07  1.0149861091008358e-05 -8.4111611028341742e-04 -9.7947356003780702e-07  1.0177980885480860e-05 -8.4092798290958163e-04 5.9230539092153457e-07  1.0203323282530095e-05 -8.4074098770485560e-04 2.0364858765940123e-06  1.0227496585931667e-05 -8.4055485931047497e-04 3.4202083032389400e-06  1.0250454681812505e-05 -8.4036867257399181e-04 4.7346320324193216e-06  1.0271704326885120e-05 -8.4018182854201067e-04 5.9566344044667784e-06  1.0292420049159817e-05 -8.3999500818994564e-04 7.1515231440127124e-06  1.0311598857053666e-05 -8.3980798148942622e-04 8.2733077872453368e-06  1.0329142256012321e-05 -8.3962082889675333e-04 9.3040027095686731e-06  1.0345281515164753e-05 -8.3943361752592286e-04 1.0274847771702674e-05  1.0360414926355020e-05 -8.3924702863814654e-04 1.1184319343963586e-05  1.0373421954614209e-05 -8.3906061468690574e-04 1.1994405821367944e-05  1.0385023783566237e-05 -8.3887461745109793e-04 1.2726407201357336e-05  1.0394868698428967e-05 -8.3868828593050690e-04 1.3374888764402727e-05  1.0402922857593876e-05 -8.3850251774469301e-04 1.3925355764019008e-05  1.0408751245248385e-05 -8.3831682954866866e-04 1.4374759661444755e-05  1.0413558750214167e-05 -8.3813166324985693e-04 1.4763162576385645e-05  1.0417088840409518e-05 -8.3794687751408896e-04 1.5089327598234409e-05  1.0418887619961412e-05 -8.3776256242794475e-04 1.5330536671277365e-05  1.0419135451027745e-05 -8.3757854797288339e-04 1.5488156662172850e-05  1.0418915109502138e-05 -8.3739478234062239e-04 1.5618053275628089e-05  1.0416964579995067e-05 -8.3721149112356763e-04 1.5658502297106427e-05  1.0414137081484675e-05 -8.3702870462256252e-04 1.5655388905797386e-05  1.0410067490191521e-05 -8.3684635356472820e-04 1.5590795340376107e-05  1.0404218403589998e-05 -8.3666434925073097e-04 1.5424538966423263e-05  1.0396617532776442e-05 -8.3648286084273373e-04 1.5159836054625506e-05  1.0386568734093706e-05 -8.3630188835194302e-04 1.4761340220736923e-05  1.0374852185620904e-05 -8.3612141056586516e-04 1.4271575144684858e-05  1.0360754885731370e-05 -8.3594149955179716e-04 1.3642279688695107e-05  1.0343173671512002e-05 -8.3576225369735001e-04 1.2814955235760393e-05  1.0320765916785528e-05 -8.3558365451444241e-04 1.1714924095770450e-05  1.0289701152236629e-05 -8.3540675395899768e-04 1.0138776579578938e-05  1.0241386063344742e-05 -8.3523408048542889e-04 7.6035321044056963e-06  -6.0217200329980293e-08 -9.0255750609783602e-08 -3.7125154231065499e-08  -1.2121889834188592e-07 -3.8582809655963253e-07 -1.0108640023603906e-07  -1.4431701014558111e-07 -8.1722064860647202e-07 -2.3109631816250071e-07  -1.1860821585586489e-07 -1.9776637055947654e-06 -4.2687836587885981e-07  -2.9879228646678433e-08 -3.2634085487123696e-06 -5.9804058137792701e-07  4.8487952197706797e-09 -4.6905264442282110e-06 -6.5125783016184337e-07  3.8181850153811710e-08 -7.2015545930818189e-06 -7.2879105445737711e-07  8.6392865329302982e-08 -9.8355657025617732e-06 -8.1550801297969643e-07  5.9176919853153487e-08 -1.2843206537662506e-05 -8.8850253484716670e-07  1.1806577260958431e-07 -1.6243646452876717e-05 -1.0356890133492517e-06  2.5359093316304577e-07 -2.0163155585813991e-05 -1.2226571173713640e-06  3.8433210979127804e-07 -2.4239695473866135e-05 -1.4089860166737731e-06  5.3237056067539973e-07 -2.8495838350659388e-05 -1.5807870488766933e-06  5.2469811793242158e-07 -3.3798390609342821e-05 -1.6013087700532416e-06  6.2207646491228668e-07 -3.9387504114668189e-05 -1.6766954298597296e-06  6.7202509257716375e-07 -4.5052544747614003e-05 -1.7956391485643331e-06  7.5048431256810881e-07 -5.1207228899175289e-05 -1.8965632970520772e-06  8.1963693261698863e-07 -5.7809386371887767e-05 -2.0555902183872454e-06  8.9123594014822618e-07 -6.4784649693634729e-05 -2.2193992758573463e-06  9.9687560840910481e-07 -7.2106830659083567e-05 -2.2504443586416036e-06  1.0508012276688397e-06 -7.9645547991703447e-05 -2.2805996432509258e-06  1.1371658210938086e-06 -8.7262026192722530e-05 -2.3377732395717526e-06  1.2375530677433899e-06 -9.5046249830039697e-05 -2.3762167084577076e-06  1.3223087514591451e-06 -1.0306667811230283e-04 -2.4405151988294596e-06  1.4328495393749140e-06 -1.1125827368830897e-04 -2.5116367456771436e-06  1.5199954828994683e-06 -1.1965300466899283e-04 -2.5145618815723251e-06  1.6241982069654171e-06 -1.2826165888343139e-04 -2.6177489220720903e-06  1.7162360387192024e-06 -1.3710988820742808e-04 -2.6609978346006887e-06  1.8232399688000246e-06 -1.4603446993239795e-04 -2.7034557149014774e-06  1.9517050906842992e-06 -1.5510717182810879e-04 -2.7498499539269998e-06  2.0672166100762454e-06 -1.6420837775828808e-04 -2.7705428245438488e-06  2.1750968422670906e-06 -1.7340416434690663e-04 -2.7725413315467380e-06  2.2870876387701600e-06 -1.8274719310853939e-04 -2.8088532284661731e-06  2.3932950142637906e-06 -1.9219531885777017e-04 -2.8426217798187920e-06  2.5039889231078809e-06 -2.0176609680157436e-04 -2.8399016987325587e-06  2.6223488788249643e-06 -2.1138355639704624e-04 -2.8785916127673715e-06  2.7495721138690895e-06 -2.2101703661513624e-04 -2.8769402682209747e-06  2.8710366942270074e-06 -2.3082900090142135e-04 -2.8914161457425366e-06  2.9808573845784398e-06 -2.4068848302935791e-04 -2.9190376728892726e-06  3.0994626961846590e-06 -2.5060789100790924e-04 -2.9320113811761148e-06  3.2100740770445898e-06 -2.6067014688938548e-04 -2.9463349965881737e-06  3.3286874581200072e-06 -2.7070718381841819e-04 -2.9540408205025005e-06  3.4430393028161797e-06 -2.8078638212641145e-04 -2.9606651424502614e-06  3.5635917306162820e-06 -2.9088619392859792e-04 -2.9565350449335727e-06  3.6851827550058756e-06 -3.0100796547473944e-04 -2.9557176416429728e-06  3.8032500293581293e-06 -3.1113785614065345e-04 -2.9582647107565277e-06  3.9211415416355215e-06 -3.2130556983466153e-04 -2.9630263784728867e-06  4.0433303823388947e-06 -3.3146830638026124e-04 -2.9625168457063353e-06  4.1577788332441157e-06 -3.4168024635767723e-04 -2.9682581640995999e-06  4.2821836993955378e-06 -3.5190401901981469e-04 -2.9657726287443877e-06  4.4041932233294100e-06 -3.6213413276938686e-04 -2.9650322014367914e-06  4.5173157442690247e-06 -3.7237399825232651e-04 -2.9619319356480165e-06  4.6388565406027064e-06 -3.8259176004480481e-04 -2.9596609735390259e-06  4.7626245960265323e-06 -3.9281663911006450e-04 -2.9560109738404765e-06  4.8836279226219022e-06 -4.0305480409077283e-04 -2.9525433679810471e-06  5.0030645694456792e-06 -4.1327255028908959e-04 -2.9466751263300649e-06  5.1238470043852177e-06 -4.2349693902842906e-04 -2.9398774047898123e-06  5.2418890168216090e-06 -4.3374133413225812e-04 -2.9359277205794865e-06  5.3613934085094588e-06 -4.4393695846725221e-04 -2.9259824624982397e-06  5.4834707083892397e-06 -4.5410150251794273e-04 -2.9174177729914638e-06  5.6065301327651097e-06 -4.6425265230068912e-04 -2.9120008648022651e-06  5.7277124350890517e-06 -4.7439642197299103e-04 -2.9049302801932930e-06  5.8467079141895041e-06 -4.8453858728260646e-04 -2.8960168920792786e-06  5.9681216148271755e-06 -4.9466487321278931e-04 -2.8915669642280797e-06  6.0868783135624668e-06 -5.0478286821827435e-04 -2.8828793150935412e-06  6.2096469468306018e-06 -5.1486697589615664e-04 -2.8793151415069737e-06  6.3297050144416899e-06 -5.2494377007888124e-04 -2.8735056609464830e-06  6.4494295766396600e-06 -5.3500970232653788e-04 -2.8664878873772860e-06  6.5700872460804034e-06 -5.4505570987523403e-04 -2.8595489380248348e-06  6.6879667373458860e-06 -5.5509049459699330e-04 -2.8517409133065148e-06  6.8092729247613308e-06 -5.6510489534659328e-04 -2.8436916102257417e-06  6.9276642149689690e-06 -5.7510134707554220e-04 -2.8375147749720257e-06  7.0485143561020365e-06 -5.8507596934298880e-04 -2.8335982492726753e-06  7.1676233267746988e-06 -5.9504513368174286e-04 -2.8264556402985181e-06  7.2865831502718077e-06 -6.0499145565117872e-04 -2.8174265005790388e-06  7.4060999758989736e-06 -6.1492855146819819e-04 -2.8109324482963248e-06  7.5237452616279854e-06 -6.2484622887771656e-04 -2.8065163108234213e-06  7.6432672610760287e-06 -6.3475912187088419e-04 -2.8035732624339989e-06  7.7628130366941502e-06 -6.4464837754985862e-04 -2.7990699652958396e-06  7.8824756232444534e-06 -6.5452279474561301e-04 -2.7952538096472270e-06  8.0006943898655688e-06 -6.6439572283523212e-04 -2.7912127817435481e-06  8.1192886944684247e-06 -6.7426216656422966e-04 -2.7876752899590302e-06  8.2379557649437097e-06 -6.8412089253932476e-04 -2.7839314961184737e-06  8.3546575315352452e-06 -6.9397167016158252e-04 -2.7822239581184500e-06  8.4713504044654827e-06 -7.0382135808697639e-04 -2.7790281569852116e-06  8.5889772426192172e-06 -7.1365599930681449e-04 -2.7765568184684487e-06  8.7077512354255241e-06 -7.2348182408404178e-04 -2.7742415689828141e-06  8.8255739097987122e-06 -7.3330581617115991e-04 -2.7733206092692103e-06  8.9428250539383502e-06 -7.4312872398271342e-04 -2.7727060462470565e-06  9.0610041427947957e-06 -7.5294641805084307e-04 -2.7712262390316450e-06  9.1787726856132815e-06 -7.6276238201043647e-04 -2.7705507879062576e-06  9.2960589459698166e-06 -7.7257900341929026e-04 -2.7700423273531090e-06  9.4133540058860061e-06 -7.8239583939876173e-04 -2.7698312801415012e-06  9.5306886047438811e-06 -7.9221208208201353e-04 -2.7698670198428357e-06  9.6479341959945260e-06 -8.0202951227308853e-04 -2.7698960958277205e-06  9.7654961143158552e-06 -8.1184724282064909e-04 -2.7703165889980280e-06  9.8829639670954754e-06 -8.2166489100156859e-04 -2.7704316323694505e-06  1.0000220510769306e-05 -8.3148459120880723e-04 -2.7702766137511358e-06  9.9994405352536098e-06 -8.3524343573017075e-04 -5.6908505276807839e-06  9.9458843009002149e-06 -8.3541449677916298e-04 -8.7407167849938770e-06  9.9148438842887221e-06 -8.3559145288583431e-04 -1.0548592700703068e-05  9.8916223113284612e-06 -8.3576989436099812e-04 -1.1926250563251031e-05  9.8734977455345542e-06 -8.3594920051670676e-04 -1.3015491410355306e-05  9.8587138621385600e-06 -8.3612910809209389e-04 -1.3909190095833641e-05  9.8463233275125080e-06 -8.3630958706338112e-04 -1.4669368471267205e-05  9.8367895765662134e-06 -8.3649069084108134e-04 -1.5262287204973197e-05  9.8295433179675005e-06 -8.3667222977415435e-04 -1.5733638281204264e-05  9.8239691035268754e-06 -8.3685422510248119e-04 -1.6099396171979736e-05  9.8201880759538765e-06 -8.3703672670754439e-04 -1.6367275197499935e-05  9.8177677850364908e-06 -8.3721957913313082e-04 -1.6560931784817690e-05  9.8169957537355604e-06 -8.3740283909652848e-04 -1.666512