<?xml version="1.0"?>
<VTKFile type="UnstructuredGrid"  version="0.1"  >
<UnstructuredGrid>
<Piece  NumberOfPoints="10958" NumberOfCells="41820">
<Points>
<DataArray  type="Float64"  NumberOfComponents="3"  format="ascii">1 0.04955 0  3.483770450905253e-06 0.04864772283650545 0  3.483770450905253e-06 0.04864772283650545 2.95  1 0.04955 2.95  0.9705745651584323 0.0546328692740541 0  0.9410403409854562 0.05904933268918263 0  0.9114506936029688 0.06307764259166145 0  0.8818365365778597 0.06692205633990718 0  0.852195425756178 0.07055529100758898 0  0.8225213484314672 0.07390813590379837 0  0.7928382076274137 0.07717791230068967 0  0.7631311412584285 0.08022519712851128 0  0.7333970986343074 0.08299595685799818 0  0.7036468593402103 0.08558339900696151 0  0.6738808305098906 0.08798485813956464 0  0.6440919092681797 0.09008334865923617 0  0.6142870835549664 0.09194561288677774 0  0.5844675933514397 0.09355367701932085 0  0.5546335832429207 0.09486496269114339 0  0.5247876530181904 0.095868659884793 0  0.4949363523436856 0.09668736484019783 0  0.4650802095563029 0.09731740696399105 0  0.4352195800941197 0.09768943189876603 0  0.405357042743103 0.09780828360274334 0  0.3754942534896675 0.09784351677757946 0  0.3456322298379585 0.09760772238205492 0  0.3157719755355017 0.09723970101506153 0  0.2859142869264596 0.09668561931752166 0  0.2560638915081948 0.09582390318294828 0  0.2262236143831659 0.09466390431188013 0  0.1964020995566796 0.09309886371899376 0  0.1665963941161298 0.09125714074218327 0  0.1368197180220126 0.08899319787719009 0  0.1070946678970156 0.08612945256268216 0  0.07746305623222323 0.08244010579101241 0  0.04805012948181673 0.07731042839253653 0  0.01932358256457366 0.06928107812002522 0  3.483770450905253e-06 0.04864772283650545 0.02979797979797999  3.483770450905253e-06 0.04864772283650545 0.05959595959595966  3.483770450905253e-06 0.04864772283650545 0.08939393939393965  3.483770450905253e-06 0.04864772283650545 0.1191919191919193  3.483770450905253e-06 0.04864772283650545 0.1489898989898993  3.483770450905253e-06 0.04864772283650545 0.178787878787879  3.483770450905253e-06 0.04864772283650545 0.2085858585858589  3.483770450905253e-06 0.04864772283650545 0.2383838383838386  3.483770450905253e-06 0.04864772283650545 0.2681818181818186  3.483770450905253e-06 0.04864772283650545 0.2979797979797986  3.483770450905253e-06 0.04864772283650545 0.3277777777777782  3.483770450905253e-06 0.04864772283650545 0.3575757575757582  3.483770450905253e-06 0.04864772283650545 0.3873737373737379  3.483770450905253e-06 0.04864772283650545 0.4171717171717179  3.483770450905253e-06 0.04864772283650545 0.4469696969696979  3.483770450905253e-06 0.04864772283650545 0.4767676767676775  3.483770450905253e-06 0.04864772283650545 0.5065656565656572  3.483770450905253e-06 0.04864772283650545 0.5363636363636372  3.483770450905253e-06 0.04864772283650545 0.5661616161616169  3.483770450905254e-06 0.04864772283650545 0.5959595959595969  3.483770450905253e-06 0.04864772283650545 0.6257575757575765  3.483770450905254e-06 0.04864772283650545 0.6555555555555564  3.483770450905253e-06 0.04864772283650545 0.6853535353535362  3.483770450905253e-06 0.04864772283650545 0.7151515151515158  3.483770450905253e-06 0.04864772283650545 0.7449494949494958  3.483770450905253e-06 0.04864772283650545 0.7747474747474755  3.483770450905253e-06 0.04864772283650545 0.8045454545454552  3.483770450905253e-06 0.04864772283650545 0.8343434343434351  3.483770450905253e-06 0.04864772283650545 0.8641414141414151  3.483770450905253e-06 0.04864772283650545 0.8939393939393945  3.483770450905254e-06 0.04864772283650545 0.9237373737373745  3.483770450905253e-06 0.04864772283650545 0.9535353535353545  3.483770450905254e-06 0.04864772283650545 0.9833333333333341  3.483770450905253e-06 0.04864772283650545 1.013131313131314  3.483770450905254e-06 0.04864772283650545 1.042929292929294  3.483770450905253e-06 0.04864772283650545 1.072727272727274  3.483770450905254e-06 0.04864772283650545 1.102525252525254  3.483770450905253e-06 0.04864772283650545 1.132323232323234  3.483770450905254e-06 0.04864772283650545 1.162121212121214  3.483770450905253e-06 0.04864772283650545 1.191919191919194  3.483770450905254e-06 0.04864772283650545 1.221717171717174  3.483770450905253e-06 0.04864772283650545 1.251515151515153  3.483770450905254e-06 0.04864772283650545 1.281313131313133  3.483770450905253e-06 0.04864772283650545 1.311111111111113  3.483770450905253e-06 0.04864772283650545 1.340909090909093  3.483770450905253e-06 0.04864772283650545 1.370707070707073  3.483770450905253e-06 0.04864772283650545 1.400505050505053  3.483770450905253e-06 0.04864772283650545 1.430303030303033  3.483770450905253e-06 0.04864772283650545 1.460101010101013  3.483770450905253e-06 0.04864772283650545 1.489898989898993  3.483770450905253e-06 0.04864772283650545 1.519696969696973  3.483770450905253e-06 0.04864772283650545 1.549494949494953  3.483770450905253e-06 0.04864772283650545 1.579292929292933  3.483770450905253e-06 0.04864772283650545 1.609090909090913  3.483770450905253e-06 0.04864772283650545 1.638888888888893  3.483770450905254e-06 0.04864772283650545 1.668686868686872  3.483770450905253e-06 0.04864772283650545 1.698484848484852  3.483770450905254e-06 0.04864772283650545 1.728282828282832  3.483770450905253e-06 0.04864772283650545 1.758080808080812  3.483770450905254e-06 0.04864772283650545 1.787878787878792  3.483770450905253e-06 0.04864772283650545 1.817676767676772  3.483770450905254e-06 0.04864772283650545 1.847474747474752  3.483770450905253e-06 0.04864772283650545 1.877272727272732  3.483770450905254e-06 0.04864772283650545 1.907070707070712  3.483770450905253e-06 0.04864772283650545 1.936868686868691  3.483770450905253e-06 0.04864772283650545 1.966666666666671  3.483770450905253e-06 0.04864772283650545 1.996464646464651  3.483770450905253e-06 0.04864772283650545 2.02626262626263  3.483770450905253e-06 0.04864772283650545 2.056060606060611  3.483770450905253e-06 0.04864772283650545 2.08585858585859  3.483770450905254e-06 0.04864772283650545 2.11565656565657  3.483770450905253e-06 0.04864772283650545 2.14545454545455  3.483770450905253e-06 0.04864772283650545 2.175252525252529  3.483770450905253e-06 0.04864772283650545 2.205050505050508  3.483770450905253e-06 0.04864772283650545 2.234848484848488  3.483770450905253e-06 0.04864772283650545 2.264646464646468  3.483770450905253e-06 0.04864772283650545 2.294444444444448  3.483770450905253e-06 0.04864772283650545 2.324242424242427  3.483770450905253e-06 0.04864772283650545 2.354040404040407  3.483770450905253e-06 0.04864772283650545 2.383838383838387  3.483770450905254e-06 0.04864772283650545 2.413636363636366  3.483770450905253e-06 0.04864772283650545 2.443434343434346  3.483770450905253e-06 0.04864772283650545 2.473232323232326  3.483770450905253e-06 0.04864772283650545 2.503030303030305  3.483770450905253e-06 0.04864772283650545 2.532828282828285  3.483770450905253e-06 0.04864772283650545 2.562626262626264  3.483770450905253e-06 0.04864772283650545 2.592424242424244  3.483770450905254e-06 0.04864772283650545 2.622222222222224  3.483770450905253e-06 0.04864772283650545 2.652020202020203  3.483770450905253e-06 0.04864772283650545 2.681818181818183  3.483770450905253e-06 0.04864772283650545 2.711616161616163  3.483770450905253e-06 0.04864772283650545 2.741414141414142  3.483770450905254e-06 0.04864772283650545 2.771212121212122  3.483770450905253e-06 0.04864772283650545 2.801010101010102  3.483770450905253e-06 0.04864772283650545 2.830808080808081  3.483770450905253e-06 0.04864772283650545 2.860606060606061  3.483770450905253e-06 0.04864772283650545 2.890404040404041  3.483770450905253e-06 0.04864772283650545 2.92020202020202  0.9705745651584323 0.0546328692740541 2.95  0.9410403409854562 0.05904933268918263 2.95  0.9114506936029688 0.06307764259166145 2.95  0.8818365365778597 0.06692205633990718 2.95  0.852195425756178 0.07055529100758898 2.95  0.8225213484314672 0.07390813590379837 2.95  0.7928382076274137 0.07717791230068967 2.95  0.7631311412584285 0.08022519712851128 2.95  0.7333970986343074 0.08299595685799818 2.95  0.7036468593402103 0.08558339900696151 2.95  0.6738808305098906 0.08798485813956464 2.95  0.6440919092681797 0.09008334865923617 2.95  0.6142870835549664 0.09194561288677774 2.95  0.5844675933514397 0.09355367701932085 2.95  0.5546335832429207 0.09486496269114339 2.95  0.5247876530181904 0.095868659884793 2.95  0.4949363523436856 0.09668736484019783 2.95  0.4650802095563029 0.09731740696399105 2.95  0.4352195800941197 0.09768943189876603 2.95  0.405357042743103 0.09780828360274334 2.95  0.3754942534896675 0.09784351677757946 2.95  0.3456322298379585 0.09760772238205492 2.95  0.3157719755355017 0.09723970101506153 2.95  0.2859142869264596 0.09668561931752166 2.95  0.2560638915081948 0.09582390318294828 2.95  0.2262236143831659 0.09466390431188013 2.95  0.1964020995566796 0.09309886371899376 2.95  0.1665963941161298 0.09125714074218327 2.95  0.1368197180220126 0.08899319787719009 2.95  0.1070946678970156 0.08612945256268216 2.95  0.07746305623222323 0.08244010579101241 2.95  0.04805012948181673 0.07731042839253653 2.95  0.01932358256457366 0.06928107812002522 2.95  1 0.04955 0.02979797979797999  1 0.04955 0.05959595959595966  1 0.04955 0.08939393939393965  1 0.04955 0.1191919191919193  1 0.04955 0.1489898989898993  1 0.04955 0.178787878787879  1 0.04955 0.2085858585858589  1 0.04955 0.2383838383838386  1 0.04955 0.2681818181818186  1 0.04955 0.2979797979797986  1 0.04955 0.3277777777777782  1 0.04955 0.3575757575757582  1 0.04955 0.3873737373737379  1 0.04955 0.4171717171717179  1 0.04955 0.4469696969696979  1 0.04955 0.4767676767676775  1 0.04955 0.5065656565656572  1 0.04955 0.5363636363636372  1 0.04955 0.5661616161616169  1 0.04955 0.5959595959595969  1 0.04955 0.6257575757575765  1 0.04955 0.6555555555555564  1 0.04955 0.6853535353535362  1 0.04955 0.7151515151515158  1 0.04955 0.7449494949494958  1 0.04955 0.7747474747474755 
[...]
<PointData  Vectors="Displacement"> 
<DataArray  type="Float64"  Name="Displacement"  NumberOfComponents="3" format="ascii">0.0000000000000000e+00 0.0000000000000000e+00 0.0000000000000000e+00  0.0000000000000000e+00 0.0000000000000000e+00 0.0000000000000000e+00  5.4872471537452489e-05 -4.1960043357076272e-03 5.8923993926241049e-06  5.4939634265705526e-05 -4.2138050659055060e-03 -1.7448291191016140e-05  0.0000000000000000e+00 0.0000000000000000e+00 0.0000000000000000e+00  0.0000000000000000e+00 0.0000000000000000e+00 0.0000000000000000e+00  0.0000000000000000e+00 0.0000000000000000e+00 0.0000000000000000e+00  0.0000000000000000e+00 0.0000000000000000e+00 0.0000000000000000e+00  0.0000000000000000e+00 0.0000000000000000e+00 0.0000000000000000e+00  0.0000000000000000e+00 0.0000000000000000e+00 0.0000000000000000e+00  0.0000000000000000e+00 0.0000000000000000e+00 0.0000000000000000e+00  0.0000000000000000e+00 0.0000000000000000e+00 0.0000000000000000e+00  0.0000000000000000e+00 0.0000000000000000e+00 0.0000000000000000e+00  0.0000000000000000e+00 0.0000000000000000e+00 0.0000000000000000e+00  0.0000000000000000e+00 0.0000000000000000e+00 0.0000000000000000e+00  0.0000000000000000e+00 0.0000000000000000e+00 0.0000000000000000e+00  0.0000000000000000e+00 0.0000000000000000e+00 0.0000000000000000e+00  0.0000000000000000e+00 0.0000000000000000e+00 0.0000000000000000e+00  0.0000000000000000e+00 0.0000000000000000e+00 0.0000000000000000e+00  0.0000000000000000e+00 0.0000000000000000e+00 0.0000000000000000e+00  0.0000000000000000e+00 0.0000000000000000e+00 0.0000000000000000e+00  0.0000000000000000e+00 0.0000000000000000e+00 0.0000000000000000e+00  0.0000000000000000e+00 0.0000000000000000e+00 0.0000000000000000e+00  0.0000000000000000e+00 0.0000000000000000e+00 0.0000000000000000e+00  0.0000000000000000e+00 0.0000000000000000e+00 0.0000000000000000e+00  0.0000000000000000e+00 0.0000000000000000e+00 0.0000000000000000e+00  0.0000000000000000e+00 0.0000000000000000e+00 0.0000000000000000e+00  0.0000000000000000e+00 0.0000000000000000e+00 0.0000000000000000e+00  0.0000000000000000e+00 0.0000000000000000e+00 0.0000000000000000e+00  0.0000000000000000e+00 0.0000000000000000e+00 0.0000000000000000e+00  0.0000000000000000e+00 0.0000000000000000e+00 0.0000000000000000e+00  0.0000000000000000e+00 0.0000000000000000e+00 0.0000000000000000e+00  0.0000000000000000e+00 0.0000000000000000e+00 0.0000000000000000e+00  0.0000000000000000e+00 0.0000000000000000e+00 0.0000000000000000e+00  0.0000000000000000e+00 0.0000000000000000e+00 0.0000000000000000e+00  0.0000000000000000e+00 0.0000000000000000e+00 0.0000000000000000e+00  0.0000000000000000e+00 0.0000000000000000e+00 0.0000000000000000e+00  -3.9480915897807415e-08 8.0738908896514058e-07 9.9487536074597617e-08  9.2762977155669188e-08 3.9029160710980998e-07 4.3159457330303835e-07  2.3937800062297713e-07 -1.2944848454893608e-06 8.1181198610048010e-07  4.0390305610617079e-07 -4.6025780533371933e-06 9.2226191548216245e-07  3.8651968133395000e-07 -9.5021626512760095e-06 1.0643962088823686e-06  5.9295940762493128e-07 -1.6141514330264617e-05 1.1642126988205631e-06  6.9228705067756924e-07 -2.4661076812144075e-05 1.1875317002840960e-06  7.8331684812325516e-07 -3.4556601436004060e-05 1.5318205506128977e-06  9.9713557379997341e-07 -4.6078066387213403e-05 1.6647520850347998e-06  1.0996062381419117e-06 -5.9355698803345711e-05 1.7709972758708031e-06  1.3966083187499329e-06 -7.4039512606356139e-05 1.9345887476402705e-06  1.7111485832607699e-06 -9.0217113476539004e-05 1.9780146726152346e-06  1.8198077698674257e-06 -1.0806368262907257e-04 2.1379163948083564e-06  2.1126839179778831e-06 -1.2714273169481789e-04 1.9141609167100155e-06  2.2556482693231017e-06 -1.4761907388991284e-04 2.2640684787492860e-06  2.6460135777429777e-06 -1.6958928221881756e-04 2.2230210978334083e-06  2.9189144732197606e-06 -1.9248358995806525e-04 2.3936495208376096e-06  3.1203002557097109e-06 -2.1727527553172096e-04 2.5558908111250379e-06  3.5793603751232716e-06 -2.4319026906215432e-04 2.7354759486439681e-06  3.8885191138424110e-06 -2.7022970197072941e-04 2.5409018255695821e-06  4.2316855152053400e-06 -2.9814391008572847e-04 2.9229221032331626e-06  4.5621904113581384e-06 -3.2715855963637893e-04 3.2761480287734525e-06  5.1840616596780321e-06 -3.5735596907577401e-04 3.2988458614176875e-06  5.4327632406404361e-06 -3.8848639549364251e-04 3.3697097827594224e-06  5.9995185619162955e-06 -4.2055958618228781e-04 3.4470110387828556e-06  6.4942355693684544e-06 -4.5361091551200834e-04 3.2671206014448864e-06  6.7657572375423563e-06 -4.8796219212257294e-04 3.2420695074368728e-06  7.1247107698445894e-06 -5.2312537758389920e-04 3.5263924850971009e-06  7.6015319175006706e-06 -5.5945114283492898e-04 3.7086291787324397e-06  8.1489134723735438e-06 -5.9654903967980852e-04 3.8497180903764680e-06  8.6027818552757583e-06 -6.3437437056948877e-04 3.9682852964781761e-06  9.1288375047608713e-06 -6.7302291604076506e-04 4.0732439464203462e-06  9.6900216529487910e-06 -7.1258476831157988e-04 4.1052456300448883e-06  1.0229879353007385e-05 -7.5300076239712490e-04 3.9936497848524357e-06  1.0646329401406199e-05 -7.9391155444317183e-04 4.0613782196772779e-06  1.1127298089245020e-05 -8.3563789815293058e-04 4.3263213602160679e-06  1.1799896043011282e-05 -8.7813963853915840e-04 4.3904588827806978e-06  1.2370520876366214e-05 -9.2135191933121125e-04 4.3971648533890222e-06  1.2935619459714563e-05 -9.6523533477863293e-04 4.3113321879618717e-06  1.3414268292557005e-05 -1.0095324263610784e-03 4.4704795312941146e-06  1.4004398030472312e-05 -1.0545085162484281e-03 4.5936453809628243e-06  1.4648741752891699e-05 -1.1003265644909908e-03 4.7196514956053090e-06  1.5168402293670162e-05 -1.1467090670687424e-03 4.8114010327690201e-06  1.5865991773489026e-05 -1.1936441799621708e-03 4.8569949103155018e-06  1.6495873029801260e-05 -1.2411621550715993e-03 4.8719218550801658e-06  1.7088666486500459e-05 -1.2892030785516247e-03 4.8811229393356936e-06  1.7734254798689668e-05 -1.3376528928801263e-03 4.7909259650481532e-06  1.8338708734994195e-05 -1.3866078989075226e-03 4.8978332858956817e-06  1.8937499966799164e-05 -1.4359576607764621e-03 4.9490631686229343e-06  1.9614499796355648e-05 -1.4858117387340324e-03 5.0283825515407991e-06  2.0244339364864167e-05 -1.5361909904093062e-03 5.1800884112862965e-06  2.0915813143709896e-05 -1.5869197356936254e-03 5.2431618884341026e-06  2.1635847315523997e-05 -1.6380906122815931e-03 5.1557800615804745e-06  2.2229427024028537e-05 -1.6895503823726814e-03 5.1987624413225617e-06  2.2952546060302559e-05 -1.7414175671213411e-03 5.2091155860166927e-06  2.3580802305852964e-05 -1.7936334182102442e-03 5.2531165698096695e-06  2.4254064065249560e-05 -1.8461028644283857e-03 5.3152360411159200e-06  2.4916193904949501e-05 -1.8989120561966096e-03 5.4486261118344606e-06  2.5656067319421325e-05 -1.9520089947099425e-03 5.4833400028580856e-06  2.6368960917504928e-05 -2.0053592316498269e-03 5.4208602716144170e-06  2.7010698837086836e-05 -2.0589907705909015e-03 5.4475623900889074e-06  2.7685347266173950e-05 -2.1129300618903594e-03 5.5770164421015722e-06  2.8455558246835881e-05 -2.1671362997181202e-03 5.5772878159248383e-06  2.9176125302240212e-05 -2.2215853963518874e-03 5.5430866962964170e-06  2.9855197801180120e-05 -2.2762469779041331e-03 5.5519707669623247e-06  3.0557332078144814e-05 -2.3310820384753956e-03 5.6394361741079907e-06  3.1257837983682996e-05 -2.3861237710686815e-03 5.6886641791680912e-06  3.2013131501518049e-05 -2.4413008386566571e-03 5.6971467986188005e-06  3.2708186818863994e-05 -2.4966874683387151e-03 5.7202936481521846e-06  3.3462129313512256e-05 -2.5522280801658415e-03 5.7296479585778500e-06  3.4196150631140918e-05 -2.6079271876140219e-03 5.6961531628179220e-06  3.4899551114180712e-05 -2.6637995653819259e-03 5.7070228452094699e-06  3.5618006933987960e-05 -2.7197723124565290e-03 5.7701770946583068e-06  3.6338819372376369e-05 -2.7758593119216165e-03 5.7876545951779466e-06  3.7085931066810125e-05 -2.8320821709066860e-03 5.8063303643646979e-06  3.7819158356542748e-05 -2.8883859519745229e-03 5.8047390029666259e-06  3.8551447020375866e-05 -2.9447789588965124e-03 5.8137390329567314e-06  3.9298273130325928e-05 -3.0012648180745599e-03 5.8042009996807335e-06  4.0031944386954390e-05 -3.0578270865521378e-03 5.8150819427732203e-06  4.0761818445491276e-05 -3.1144630535287379e-03 5.8339707313428563e-06  4.1492862551897090e-05 -3.1711423851472696e-03 5.8553463829481377e-06  4.2244418479200922e-05 -3.2278897797128332e-03 5.8638304591087058e-06  4.2978184126370279e-05 -3.2846747419032849e-03 5.8656833268418104e-06  4.3724108814044719e-05 -3.3415034712803433e-03 5.8693830611956912e-06  4.4467458699421646e-05 -3.3983660341052658e-03 5.8686197310752332e-06  4.5212956498187648e-05 -3.4552634777897653e-03 5.8671062212170604e-06  4.5951782926580962e-05 -3.5121851903579886e-03 5.8765894699893247e-06  4.6690111399471979e-05 -3.5691302370033855e-03 5.8837157734161477e-06  4.7437054740387191e-05 -3.6260936614692404e-03 5.8851548629240536e-06  4.8183040918139092e-05 -3.6830668062936092e-03 5.8842098833836592e-06  4.8926880361677938e-05 -3.7400512728319895e-03 5.8871820587535951e-06  4.9667303597574541e-05 -3.7970413688022345e-03 5.8911479699050107e-06  5.0410753871986213e-05 -3.8540370765640306e-03 5.8922156465079524e-06  5.1155580002985426e-05 -3.9110355487429905e-03 5.8925234099270958e-06  5.1899838319606190e-05 -3.9680324328250473e-03 5.8926951059316328e-06  5.2642582957029033e-05 -4.0250284665663532e-03 5.8921388387611933e-06  5.3386863527062309e-05 -4.0820229320498698e-03 5.8923078133422637e-06  5.4129777600347099e-05 -4.1390149670220647e-03 5.8923394982551401e-06  5.5019617414193566e-05 -4.2133390264621050e-03 -6.9752638753690593e-06  5.5091168422605897e-05 -4.2128618117241142e-03 2.2227789522942957e-06  5.5158925711749425e-05 -4.2123714495822884e-03 1.0678332525172657e-05  5.5223804553696746e-05 -4.2118720315964314e-03 1.8782136885273513e-05  5.5284528990117187e-05 -4.2113701331383795e-03 2.6481081939822213e-05  5.5340074309242674e-05 -4.2108696801218442e-03 3.3644717977863826e-05  5.5394284295306520e-05 -4.2103682129614461e-03 4.0647978241705413e-05  5.5445650955235531e-05 -4.2098663552082071e-03 4.7225001594775970e-05  5.5491686316999524e-05 -4.2093634987682999e-03 5.3273447633072112e-05  5.5536451366096651e-05 -4.2088598427097923e-03 5.8967805472968041e-05  5.5576999836936529e-05 -4.2083508009293745e-03 6.4307362010410411e-05  5.5614062340391360e-05 -4.2078388214881529e-03 6.9064778258313956e-05  5.5646587355625070e-05 -4.2073226874007313e-03 7.3372243988676066e-05  5.5676179274761838e-05 -4.2068074785887458e-03 7.7191796187316597e-05  5.5700212206023050e-05 -4.2062868340439737e-03 8.0445279953472506e-05  5.5721389432152193e-05 -4.2057643133701517e-03 8.3108257689790734e-05  5.5738480587173668e-05 -4.2052374198859660e-03 8.5417551129855239e-05  5.5753069071997646e-05 -4.2047067268438367e-03 8.7366297743188154e-05  5.5764163353945025e-05 -4.2041716063833875e-03 8.8820585164895916e-05  5.5770634539659352e-05 -4.2036334848598910e-03 8.9791246792187728e-05  5.5775247960615549e-05 -4.2030929676013058e-03 9.0603118496809776e-05  5.5775369670938033e-05 -4.2025483469221320e-03 9.0896860159957657e-05  5.5773589491966454e-05 -4.2019994496616843e-03 9.0937167288325486e-05  5.5769152311884819e-05 -4.2014467085768085e-03 9.0622210216439634e-05  5.5758018632597375e-05 -4.2008913604467202e-03 8.9719657149667242e-05  5.5740812833854700e-05 -4.2003324061732072e-03 8.8246418782216243e-05  5.5715863634268651e-05 -4.1997702958662163e-03 8.5998790579063856e-05  5.5685401030175999e-05 -4.1992051936776912e-03 8.3221081071944305e-05  5.5645433423782982e-05 -4.1986373854080829e-03 7.9635940147650410e-05  5.5592852782885126e-05 -4.1980677660166310e-03 7.4901862448114329e-05  5.5523331010148236e-05 -4.1974992293262806e-03 6.8586298235461091e-05  5.5425952016398093e-05 -4.1969321667274543e-03 5.9511222872683470e-05  5.5271291242929093e-05 -4.1963776830040806e-03 4.4871889148715888e-05  -2.0105266879663884e-07 3.8541168807490968e-07 -3.4242104551146984e-08  -3.7195406500070571e-07 2.1845739516906411e-08 -1.8756152766159105e-07  -4.3402148274040309e-07 -7.7721650014077272e-07 -5.7683154394784670e-07  -3.2720787201794724e-07 -3.9320393197911735e-06 -1.2362602150148588e-06  -3.6491169837190939e-09 -7.5041809015583973e-06 -1.8379998739956905e-06  1.2600918801201068e-07 -1.1568513219972456e-05 -2.0273530208473604e-06  2.5040038135957043e-07 -1.9526640647511887e-05 -2.3054074768955391e-06  4.2893644538420154e-07 -2.7937859598228478e-05 -2.6203753115274926e-06  3.2321782857867794e-07 -3.7718038501354720e-05 -2.8879250089624009e-06  5.4277107074401013e-07 -4.9001765760973458e-05 -3.4520288339290478e-06  1.0673213631198893e-06 -6.2249271380762311e-05 -4.1976752242430692e-06  1.5787537368245429e-06 -7.6106455786394676e-05 -4.9574496325639560e-06  2.1677173793525805e-06 -9.0663428261872616e-05 -5.6787862422726942e-06  2.1147698461180236e-06 -1.0952043480040692e-04 -5.7712245339273857e-06  2.5026326819530512e-06 -1.2960165354395140e-04 -6.1017112811636570e-06  2.7129909830322013e-06 -1.4987106090777653e-04 -6.6157658719290874e-06  3.0330536294423215e-06 -1.7236742247919113e-04 -7.0760661216571114e-06  3.3115046304345406e-06 -1.9685738879991163e-04 -7.8198584125559329e-06  3.5936401313716524e-06 -2.2309516301780927e-04 -8.6265435182256216e-06  4.0490800911344908e-06 -2.5101481045731658e-04 -8.8179047515293302e-06  4.2308138353070568e-06 -2.8003128641036843e-04 -8.9886299045061300e-06  4.5872670956933946e-06 -3.0947828810829435e-04 -9.3057700206617894e-06  5.0171996357903898e-06 -3.3973777225612803e-04 -9.5306293745980280e-06  5.3741360683964604e-06 -3.7125312118114063e-04 -9.8992726446110840e-06  5.8665165273729266e-06 -4.0376930162107019e-04 -1.0326475525918369e-05  6.2206566571414793e-06 -4.3735660868176793e-04 -1.0360105127806231e-05  6.6731640484106771e-06 -4.7228571597140518e-04 -1.1032197171458199e-05  7.0541629116815930e-06 -5.0878858733192922e-04 -1.1329916929059867e-05  7.5236603417345721e-06 -5.4577100601225386e-04 -1.1655016804012676e-05  8.1710507538495012e-06 -5.8373376544313023e-04 -1.2043242810990969e-05  8.7097970476970700e-06 -6.2191716833687833e-04 -1.2232227969259924e-05  9.1851731970630326e-06 -6.6085429015003627e-04 -1.2272496139164500e-05  9.7373372026475999e-06 -7.0074314225704987e-04 -1.2604747222329608e-05  1.0214747131281219e-05 -7.4160554079955488e-04 -1.2899288718739983e-05  1.0686074652280033e-05 -7.8351059267971071e-04 -1.2903733953619558e-05  1.1275196820287322e-05 -8.2572496952390551e-04 -1.3289122781472766e-05  1.1906147091886606e-05 -8.6814333518227629e-04 -1.3328183187020322e-05  1.2524787420254397e-05 -9.1201589573197944e-04 -1.3551489213804501e-05  1.3043494130610581e-05 -9.5654407522693485e-04 -1.3860047465774744e-05  1.3660910149554703e-05 -1.0015929172200496e-03 -1.4094871221735607e-05  1.4206997643260483e-05 -1.0480362642312465e-03 -1.4365030025224967e-05  1.4787537908254178e-05 -1.0948398292990832e-03 -1.4507594623381177e-05  1.5392019641707254e-05 -1.1421129178246939e-03 -1.4716757305229124e-05  1.6004310278339762e-05 -1.1895997989623465e-03 -1.4769878099174755e-05  1.6627433611030381e-05 -1.2379117361240241e-03 -1.4832591859329887e-05  1.7253739233069400e-05 -1.2864872118233445e-03 -1.4999937043971177e-05  1.7816578306444663e-05 -1.3357459450977372e-03 -1.5115612155713986e-05  1.8455553597199436e-05 -1.3851785549590168e-03 -1.5210695311650302e-05  1.9045644225504965e-05 -1.4350526864251169e-03 -1.5417945548469639e-05  1.9774174379340568e-05 -1.4856196629977599e-03 -1.5561110666827846e-05  2.0419643382262453e-05 -1.5365636512345337e-03 -1.5671409110931001e-05  2.1036343465430481e-05 -1.5878977312445293e-03 -1.5870367958586711e-05  2.1694369400537214e-05 -1.6396662318765086e-03 -1.6010356450672971e-05  2.2368557483119150e-05 -1.6918293682787948e-03 -1.6024514698203716e-05  2.3013748677895810e-05 -1.7443052636169237e-03 -1.6166397244964212e-05  2.3694379456962912e-05 -1.7971742323078048e-03 -1.6276152888111386e-05  2.4417417236391752e-05 -1.8501367147968799e-03 -1.6356411191519006e-05  2.5071737417086271e-05 -1.9037761198346952e-03 -1.6446200952746029e-05  2.5718107376836155e-05 -1.9578299915527651e-03 -1.6520803479908635e-05  2.6379225838944746e-05 -2.0120559526932121e-03 -1.6640117172692098e-05  2.7066092274661627e-05 -2.0664107210730865e-03 -1.6711615614855957e-05  2.7780001413914360e-05 -2.1209831440029019e-03 -1.6774243947890424e-05  2.8513021309382034e-05 -2.1755680224107067e-03 -1.6837373969485433e-05  2.9227433974286655e-05 -2.2303467418318089e-03 -1.6860878769930719e-05  2.9949755300271990e-05 -2.2852418244753464e-03 -1.6933639915240631e-05  3.0649818677731148e-05 -2.3405746749002999e-03 -1.6970902267203417e-05  3.1376921529406649e-05 -2.3959471098212682e-03 -1.7010952079410510e-05  3.2096200946059474e-05 -2.4515425854891915e-03 -1.7064090224712909e-05  3.2801521984892830e-05 -2.5074104409647463e-03 -1.7123326823709479e-05  3.3533289971568315e-05 -2.5634213840889930e-03 -1.7159712510770568e-05  3.4215916917014019e-05 -2.6196478731398713e-03 -1.7227535457376680e-05  3.4963018521905503e-05 -2.6758522240499377e-03 -1.7255832564379289e-05  3.5689890858831314e-05 -2.7322376846829533e-03 -1.7276005157488652e-05  3.6418251126488598e-05 -2.7886488918150067e-03 -1.7309854773290522e-05  3.7135731932727070e-05 -2.8452698571965820e-03 -1.7350696668461890e-05  3.7861667808162497e-05 -2.9019191204119753e-03 -1.7380458167378761e-05  3.8600130277987518e-05 -2.9586712989032385e-03 -1.7387058010650985e-05  3.9329086226661732e-05 -3.0154573378092060e-03 -1.7395007985957861e-05  4.0061602824829667e-05 -3.0723530704517828e-03 -1.7413130266315673e-05  4.0795149445847710e-05 -3.1293005222927947e-03 -1.7425758303342976e-05  4.1534162168237022e-05 -3.1862534226856677e-03 -1.7435474496397694e-05  4.2270360209703428e-05 -3.2432540638346326e-03 -1.7450014010455350e-05  4.3009703322755363e-05 -3.3002654249330919e-03 -1.7462552489040028e-05  4.3759138141988570e-05 -3.3573200816014947e-03 -1.7459262647370978e-05  4.4506222752891467e-05 -3.4143925615553652e-03 -1.7461683771283973e-05  4.5242376676235272e-05 -3.4715069556753436e-03 -1.7462971097910418e-05  4.5981177917269485e-05 -3.5286364056008128e-03 -1.7468177123166824e-05  4.6725209328835391e-05 -3.5857577475447663e-03 -1.7467981847985731e-05  4.7473200678135409e-05 -3.6428806522278766e-03 -1.7465994423688864e-05  4.8213622389054717e-05 -3.7000259763869006e-03 -1.7468105333960636e-05  4.8958144047111547e-05 -3.7571492831893175e-03 -1.7462020022865215e-05  4.9707121931199211e-05 -3.8142514676089471e-03 -1.7461898241548298e-05  5.0454533271283782e-05 -3.8713494565496627e-03 -1.7459851156672003e-05  5.1201154730551546e-05 -3.9284474910474994e-03 -1.7455721637393831e-05  5.1949221993247366e-05 -3.9855304956607487e-03 -1.7453296112251107e-05  5.2694206887515353e-05 -4.0426089282456276e-03 -1.7448362103495076e-05  5.3440512452606327e-05 -4.0996880361433658e-03 -1.7446743845537610e-05  5.4188967421838260e-05 -4.1567480374482286e-03 -1.7447814224700935e-05  5.4492719332548143e-05 -4.1964077655127297e-03 -3.2201317332402108e-05  5.4321226783093529e-05 -4.1969574838655078e-03 -4.9936404086477310e-05  5.4223992107221841e-05 -4.1975240023013208e-03 -6.0471505178468167e-05  5.4152382828977455e-05 -4.1980927402621706e-03 -6.8511573682717266e-05  5.4098940539772580e-05 -4.1986613364740823e-03 -7.4881618229134244e-05  5.4058942155935784e-05 -4.1992286018357706e-03 -8.0115416558624279e-05  5.4027223061484746e-05 -4.1997932631894002e-03 -8.4575076049180200e-05  5.4006834865742589e-05 -4.2003546910359393e-03 -8.8067657421014541e-05  5.3993127539450378e-05 -4.2009135401809726e-03 -9.0856514055469062e-05  5.3987684045829037e-05 -4.2014690593221837e-03 -9.3033473767773021e-05  5.3987948474158951e-05 -4.2020206043793286e-03 -9.4643724058723875e-05  5.3992400514411147e-05 -4.2025691644444084e-03 -9.5828341831682959e-05  5.4001966048695046e-05 -4.2031140574608512e-03 -9.649418313