<?xml version="1.0"?>
<VTKFile type="UnstructuredGrid"  version="0.1"  >
<UnstructuredGrid>
<Piece  NumberOfPoints="10958" NumberOfCells="41820">
<Points>
<DataArray  type="Float64"  NumberOfComponents="3"  format="ascii">1 0.04955 0  3.483770450905253e-06 0.04864772283650545 0  3.483770450905253e-06 0.04864772283650545 2.95  1 0.04955 2.95  0.9705745651584323 0.0546328692740541 0  0.9410403409854562 0.05904933268918263 0  0.9114506936029688 0.06307764259166145 0  0.8818365365778597 0.06692205633990718 0  0.852195425756178 0.07055529100758898 0  0.8225213484314672 0.07390813590379837 0  0.7928382076274137 0.07717791230068967 0  0.7631311412584285 0.08022519712851128 0  0.7333970986343074 0.08299595685799818 0  0.7036468593402103 0.08558339900696151 0  0.6738808305098906 0.08798485813956464 0  0.6440919092681797 0.09008334865923617 0  0.6142870835549664 0.09194561288677774 0  0.5844675933514397 0.09355367701932085 0  0.5546335832429207 0.09486496269114339 0  0.5247876530181904 0.095868659884793 0  0.4949363523436856 0.09668736484019783 0  0.4650802095563029 0.09731740696399105 0  0.4352195800941197 0.09768943189876603 0  0.405357042743103 0.09780828360274334 0  0.3754942534896675 0.09784351677757946 0  0.3456322298379585 0.09760772238205492 0  0.3157719755355017 0.09723970101506153 0  0.2859142869264596 0.09668561931752166 0  0.2560638915081948 0.09582390318294828 0  0.2262236143831659 0.09466390431188013 0  0.1964020995566796 0.09309886371899376 0  0.1665963941161298 0.09125714074218327 0  0.1368197180220126 0.08899319787719009 0  0.1070946678970156 0.08612945256268216 0  0.07746305623222323 0.08244010579101241 0  0.04805012948181673 0.07731042839253653 0  0.01932358256457366 0.06928107812002522 0  3.483770450905253e-06 0.04864772283650545 0.02979797979797999  3.483770450905253e-06 0.04864772283650545 0.05959595959595966  3.483770450905253e-06 0.04864772283650545 0.08939393939393965  3.483770450905253e-06 0.04864772283650545 0.1191919191919193  3.483770450905253e-06 0.04864772283650545 0.1489898989898993  3.483770450905253e-06 0.04864772283650545 0.178787878787879  3.483770450905253e-06 0.04864772283650545 0.2085858585858589  3.483770450905253e-06 0.04864772283650545 0.2383838383838386  3.483770450905253e-06 0.04864772283650545 0.2681818181818186  3.483770450905253e-06 0.04864772283650545 0.2979797979797986  3.483770450905253e-06 0.04864772283650545 0.3277777777777782  3.483770450905253e-06 0.04864772283650545 0.3575757575757582  3.483770450905253e-06 0.04864772283650545 0.3873737373737379  3.483770450905253e-06 0.04864772283650545 0.4171717171717179  3.483770450905253e-06 0.04864772283650545 0.4469696969696979  3.483770450905253e-06 0.04864772283650545 0.4767676767676775  3.483770450905253e-06 0.04864772283650545 0.5065656565656572  3.483770450905253e-06 0.04864772283650545 0.5363636363636372  3.483770450905253e-06 0.04864772283650545 0.5661616161616169  3.483770450905254e-06 0.04864772283650545 0.5959595959595969  3.483770450905253e-06 0.04864772283650545 0.6257575757575765  3.483770450905254e-06 0.04864772283650545 0.6555555555555564  3.483770450905253e-06 0.04864772283650545 0.6853535353535362  3.483770450905253e-06 0.04864772283650545 0.7151515151515158  3.483770450905253e-06 0.04864772283650545 0.7449494949494958  3.483770450905253e-06 0.04864772283650545 0.7747474747474755  3.483770450905253e-06 0.04864772283650545 0.8045454545454552  3.483770450905253e-06 0.04864772283650545 0.8343434343434351  3.483770450905253e-06 0.04864772283650545 0.8641414141414151  3.483770450905253e-06 0.04864772283650545 0.8939393939393945  3.483770450905254e-06 0.04864772283650545 0.9237373737373745  3.483770450905253e-06 0.04864772283650545 0.9535353535353545  3.483770450905254e-06 0.04864772283650545 0.9833333333333341  3.483770450905253e-06 0.04864772283650545 1.013131313131314  3.483770450905254e-06 0.04864772283650545 1.042929292929294  3.483770450905253e-06 0.04864772283650545 1.072727272727274  3.483770450905254e-06 0.04864772283650545 1.102525252525254  3.483770450905253e-06 0.04864772283650545 1.132323232323234  3.483770450905254e-06 0.04864772283650545 1.162121212121214  3.483770450905253e-06 0.04864772283650545 1.191919191919194  3.483770450905254e-06 0.04864772283650545 1.221717171717174  3.483770450905253e-06 0.04864772283650545 1.251515151515153  3.483770450905254e-06 0.04864772283650545 1.281313131313133  3.483770450905253e-06 0.04864772283650545 1.311111111111113  3.483770450905253e-06 0.04864772283650545 1.340909090909093  3.483770450905253e-06 0.04864772283650545 1.370707070707073  3.483770450905253e-06 0.04864772283650545 1.400505050505053  3.483770450905253e-06 0.04864772283650545 1.430303030303033  3.483770450905253e-06 0.04864772283650545 1.460101010101013  3.483770450905253e-06 0.04864772283650545 1.489898989898993  3.483770450905253e-06 0.04864772283650545 1.519696969696973  3.483770450905253e-06 0.04864772283650545 1.549494949494953  3.483770450905253e-06 0.04864772283650545 1.579292929292933  3.483770450905253e-06 0.04864772283650545 1.609090909090913  3.483770450905253e-06 0.04864772283650545 1.638888888888893  3.483770450905254e-06 0.04864772283650545 1.668686868686872  3.483770450905253e-06 0.04864772283650545 1.698484848484852  3.483770450905254e-06 0.04864772283650545 1.728282828282832  3.483770450905253e-06 0.04864772283650545 1.758080808080812  3.483770450905254e-06 0.04864772283650545 1.787878787878792  3.483770450905253e-06 0.04864772283650545 1.817676767676772  3.483770450905254e-06 0.04864772283650545 1.847474747474752  3.483770450905253e-06 0.04864772283650545 1.877272727272732  3.483770450905254e-06 0.04864772283650545 1.907070707070712  3.483770450905253e-06 0.04864772283650545 1.936868686868691  3.483770450905253e-06 0.04864772283650545 1.966666666666671  3.483770450905253e-06 0.04864772283650545 1.996464646464651  3.483770450905253e-06 0.04864772283650545 2.02626262626263  3.483770450905253e-06 0.04864772283650545 2.056060606060611  3.483770450905253e-06 0.04864772283650545 2.08585858585859  3.483770450905254e-06 0.04864772283650545 2.11565656565657  3.483770450905253e-06 0.04864772283650545 2.14545454545455  3.483770450905253e-06 0.04864772283650545 2.175252525252529  3.483770450905253e-06 0.04864772283650545 2.205050505050508  3.483770450905253e-06 0.04864772283650545 2.234848484848488  3.483770450905253e-06 0.04864772283650545 2.264646464646468  3.483770450905253e-06 0.04864772283650545 2.294444444444448  3.483770450905253e-06 0.04864772283650545 2.324242424242427  3.483770450905253e-06 0.04864772283650545 2.354040404040407  3.483770450905253e-06 0.04864772283650545 2.383838383838387  3.483770450905254e-06 0.04864772283650545 2.413636363636366  3.483770450905253e-06 0.04864772283650545 2.443434343434346  3.483770450905253e-06 0.04864772283650545 2.473232323232326  3.483770450905253e-06 0.04864772283650545 2.503030303030305  3.483770450905253e-06 0.04864772283650545 2.532828282828285  3.483770450905253e-06 0.04864772283650545 2.562626262626264  3.483770450905253e-06 0.04864772283650545 2.592424242424244  3.483770450905254e-06 0.04864772283650545 2.622222222222224  3.483770450905253e-06 0.04864772283650545 2.652020202020203  3.483770450905253e-06 0.04864772283650545 2.681818181818183  3.483770450905253e-06 0.04864772283650545 2.711616161616163  3.483770450905253e-06 0.04864772283650545 2.741414141414142  3.483770450905254e-06 0.04864772283650545 2.771212121212122  3.483770450905253e-06 0.04864772283650545 2.801010101010102  3.483770450905253e-06 0.04864772283650545 2.830808080808081  3.483770450905253e-06 0.04864772283650545 2.860606060606061  3.483770450905253e-06 0.04864772283650545 2.890404040404041  3.483770450905253e-06 0.04864772283650545 2.92020202020202  0.9705745651584323 0.0546328692740541 2.95  0.9410403409854562 0.05904933268918263 2.95  0.9114506936029688 0.06307764259166145 2.95  0.8818365365778597 0.06692205633990718 2.95  0.852195425756178 0.07055529100758898 2.95  0.8225213484314672 0.07390813590379837 2.95  0.7928382076274137 0.07717791230068967 2.95  0.7631311412584285 0.08022519712851128 2.95  0.7333970986343074 0.08299595685799818 2.95  0.7036468593402103 0.08558339900696151 2.95  0.6738808305098906 0.08798485813956464 2.95  0.6440919092681797 0.09008334865923617 2.95  0.6142870835549664 0.09194561288677774 2.95  0.5844675933514397 0.09355367701932085 2.95  0.5546335832429207 0.09486496269114339 2.95  0.5247876530181904 0.095868659884793 2.95  0.4949363523436856 0.09668736484019783 2.95  0.4650802095563029 0.09731740696399105 2.95  0.4352195800941197 0.09768943189876603 2.95  0.405357042743103 0.09780828360274334 2.95  0.3754942534896675 0.09784351677757946 2.95  0.3456322298379585 0.09760772238205492 2.95  0.3157719755355017 0.09723970101506153 2.95  0.2859142869264596 0.09668561931752166 2.95  0.2560638915081948 0.09582390318294828 2.95  0.2262236143831659 0.09466390431188013 2.95  0.1964020995566796 0.09309886371899376 2.95  0.1665963941161298 0.09125714074218327 2.95  0.1368197180220126 0.08899319787719009 2.95  0.1070946678970156 0.08612945256268216 2.95  0.07746305623222323 0.08244010579101241 2.95  0.04805012948181673 0.07731042839253653 2.95  0.01932358256457366 0.06928107812002522 2.95  1 0.04955 0.02979797979797999  1 0.04955 0.05959595959595966  1 0.04955 0.08939393939393965  1 0.04955 0.1191919191919193  1 0.04955 0.1489898989898993  1 0.04955 0.178787878787879  1 0.04955 0.2085858585858589  1 0.04955 0.2383838383838386  1 0.04955 0.2681818181818186  1 0.04955 0.2979797979797986  1 0.04955 0.3277777777777782  1 0.04955 0.3575757575757582  1 0.04955 0.3873737373737379  1 0.04955 0.4171717171717179  1 0.04955 0.4469696969696979  1 0.04955 0.4767676767676775  1 0.04955 0.5065656565656572  1 0.04955 0.5363636363636372  1 0.04955 0.5661616161616169  1 0.04955 0.5959595959595969  1 0.04955 0.6257575757575765  1 0.04955 0.6555555555555564  1 0.04955 0.6853535353535362  1 0.04955 0.7151515151515158  1 0.04955 0.7449494949494958  1 0.04955 0.7747474747474755 
[...]
<PointData  Vectors="Displacement"> 
<DataArray  type="Float64"  Name="Displacement"  NumberOfComponents="3" format="ascii">0.0000000000000000e+00 0.0000000000000000e+00 0.0000000000000000e+00  0.0000000000000000e+00 0.0000000000000000e+00 0.0000000000000000e+00  7.4548588783112819e-05 -5.6691763769467921e-03 8.0909806152604260e-06  7.4644800513900622e-05 -5.6932190270365824e-03 -2.3860171354011071e-05  0.0000000000000000e+00 0.0000000000000000e+00 0.0000000000000000e+00  0.0000000000000000e+00 0.0000000000000000e+00 0.0000000000000000e+00  0.0000000000000000e+00 0.0000000000000000e+00 0.0000000000000000e+00  0.0000000000000000e+00 0.0000000000000000e+00 0.0000000000000000e+00  0.0000000000000000e+00 0.0000000000000000e+00 0.0000000000000000e+00  0.0000000000000000e+00 0.0000000000000000e+00 0.0000000000000000e+00  0.0000000000000000e+00 0.0000000000000000e+00 0.0000000000000000e+00  0.0000000000000000e+00 0.0000000000000000e+00 0.0000000000000000e+00  0.0000000000000000e+00 0.0000000000000000e+00 0.0000000000000000e+00  0.0000000000000000e+00 0.0000000000000000e+00 0.0000000000000000e+00  0.0000000000000000e+00 0.0000000000000000e+00 0.0000000000000000e+00  0.0000000000000000e+00 0.0000000000000000e+00 0.0000000000000000e+00  0.0000000000000000e+00 0.0000000000000000e+00 0.0000000000000000e+00  0.0000000000000000e+00 0.0000000000000000e+00 0.0000000000000000e+00  0.0000000000000000e+00 0.0000000000000000e+00 0.0000000000000000e+00  0.0000000000000000e+00 0.0000000000000000e+00 0.0000000000000000e+00  0.0000000000000000e+00 0.0000000000000000e+00 0.0000000000000000e+00  0.0000000000000000e+00 0.0000000000000000e+00 0.0000000000000000e+00  0.0000000000000000e+00 0.0000000000000000e+00 0.0000000000000000e+00  0.0000000000000000e+00 0.0000000000000000e+00 0.0000000000000000e+00  0.0000000000000000e+00 0.0000000000000000e+00 0.0000000000000000e+00  0.0000000000000000e+00 0.0000000000000000e+00 0.0000000000000000e+00  0.0000000000000000e+00 0.0000000000000000e+00 0.0000000000000000e+00  0.0000000000000000e+00 0.0000000000000000e+00 0.0000000000000000e+00  0.0000000000000000e+00 0.0000000000000000e+00 0.0000000000000000e+00  0.0000000000000000e+00 0.0000000000000000e+00 0.0000000000000000e+00  0.0000000000000000e+00 0.0000000000000000e+00 0.0000000000000000e+00  0.0000000000000000e+00 0.0000000000000000e+00 0.0000000000000000e+00  0.0000000000000000e+00 0.0000000000000000e+00 0.0000000000000000e+00  0.0000000000000000e+00 0.0000000000000000e+00 0.0000000000000000e+00  0.0000000000000000e+00 0.0000000000000000e+00 0.0000000000000000e+00  0.0000000000000000e+00 0.0000000000000000e+00 0.0000000000000000e+00  0.0000000000000000e+00 0.0000000000000000e+00 0.0000000000000000e+00  -4.9615339241905354e-08 1.0850416957415946e-06 1.3580569360635316e-07  1.2518874416795570e-07 5.7165597333321866e-07 5.7422074532538084e-07  3.2033535169820554e-07 -1.6055447536642730e-06 1.0768892156394594e-06  5.3656376079993624e-07 -5.9172937812821495e-06 1.2269967205633669e-06  5.1495852271497271e-07 -1.2326361976783361e-05 1.4174417096771162e-06  7.8892533157745747e-07 -2.1031694950257757e-05 1.5530042269555367e-06  9.2061896347398036e-07 -3.2224393033116539e-05 1.5873742589270461e-06  1.0430717642667261e-06 -4.5240055258511749e-05 2.0456997022978025e-06  1.3270797560561852e-06 -6.0410154151042008e-05 2.2251193435297370e-06  1.4632298546684603e-06 -7.7913528649675248e-05 2.3691582141998832e-06  1.8592310315969955e-06 -9.7287494244536023e-05 2.5897866554088655e-06  2.2786303031437402e-06 -1.1865203367917306e-04 2.6504114737797795e-06  2.4234383559276492e-06 -1.4224390515554393e-04 2.8654829906021369e-06  2.8131423477096330e-06 -1.6748304174322434e-04 2.5674524904998509e-06  3.0048638558160435e-06 -1.9459193783649323e-04 3.0378322034176160e-06  3.5250676245235022e-06 -2.2370356441961761e-04 2.9847224267020410e-06  3.8899431230511105e-06 -2.5405450839545890e-04 3.2143271262527125e-06  4.1578537603901777e-06 -2.8695700187833495e-04 3.4346292253073511e-06  4.7741148725455268e-06 -3.2137303315721662e-04 3.6779405509317848e-06  5.1847609254893541e-06 -3.5730632913799463e-04 3.4162963948933907e-06  5.6448356159961241e-06 -3.9442158616173693e-04 3.9333742419672239e-06  6.0888278358526787e-06 -4.3302468723344117e-04 4.4123542834631150e-06  6.9242254875948564e-06 -4.7322925508682474e-04 4.4453586866921421e-06  7.2554353498541711e-06 -5.1469960616252531e-04 4.5428122279736588e-06  8.0193621631798512e-06 -5.5745064738296584e-04 4.6493611621231284e-06  8.6829667426849460e-06 -6.0153179030679764e-04 4.4056524115998470e-06  9.0445672286942789e-06 -6.4738428323282303e-04 4.3718017854488159e-06  9.5251030019359391e-06 -6.9434485307748339e-04 4.7596951713127829e-06  1.0167694534941589e-05 -7.4289482329596419e-04 5.0100602679785785e-06  1.0905371025701849e-05 -7.9250290188985061e-04 5.2042885828760927e-06  1.1514884911990966e-05 -8.4310967584104955e-04 5.3672126656530494e-06  1.2224541576432035e-05 -8.9484670474754865e-04 5.5131302638918545e-06  1.2982553918135559e-05 -9.4783957573504505e-04 5.5586144682086869e-06  1.3709099419413097e-05 -1.0020095427833592e-03 5.4049322115332443e-06  1.4267405839243932e-05 -1.0568636255874795e-03 5.4992694674809321e-06  1.4916484696104576e-05 -1.1128429612658412e-03 5.8657669582725062e-06  1.5828484899699154e-05 -1.1698941990773660e-03 5.9553899353870697e-06  1.6598874370171013e-05 -1.2279295810375980e-03 5.9647401058895048e-06  1.7361965724591121e-05 -1.2868956858126009e-03 5.8463441916488799e-06  1.8006186590459216e-05 -1.3464386438897780e-03 6.0679307710168211e-06  1.8804668146105064e-05 -1.4069253532207691e-03 6.2391213544004105e-06  1.9679059988311372e-05 -1.4685841259404254e-03 6.4156450276010241e-06  2.0379350539977276e-05 -1.5310315841604715e-03 6.5439691629379595e-06  2.1328343620189401e-05 -1.5942511683517630e-03 6.6086591717741603e-06  2.2182347845290615e-05 -1.6582867485984989e-03 6.6300676201504103e-06  2.2984680326953029e-05 -1.7230560098563717e-03 6.6435246593229616e-06  2.3859851209283950e-05 -1.7883997753882035e-03 6.5169801866399439e-06  2.4679180675913736e-05 -1.8544533356232326e-03 6.6670630584067610e-06  2.5490058449276962e-05 -1.9210627733757919e-03 6.7393846974541952e-06  2.6410484105711559e-05 -1.9883823821520556e-03 6.8507346229867798e-06  2.7265750442332557e-05 -2.0564429627401995e-03 7.0652897058843525e-06  2.8178972002104469e-05 -2.1249974535689749e-03 7.1550795167807968e-06  2.9159629039345182e-05 -2.1941778292591651e-03 7.0317082119031448e-06  2.9963239174762753e-05 -2.2637678754754442e-03 7.0927100457069707e-06  3.0949284446597018e-05 -2.3339360113770712e-03 7.1070371238596283e-06  3.1801117101538626e-05 -2.4046001741492573e-03 7.1698930660332679e-06  3.2716944052340631e-05 -2.4756252802320615e-03 7.2579987899144487e-06  3.3617632507953335e-05 -2.5471347811879311e-03 7.4483683301110357e-06  3.4628660427799214e-05 -2.6190542257277885e-03 7.4982538562790281e-06  3.5599837439873742e-05 -2.6913355612428998e-03 7.4089996869046367e-06  3.6470730475136462e-05 -2.7640194110607960e-03 7.4472718115281032e-06  3.7389236891716493e-05 -2.8371439796273938e-03 7.6327229596469423e-06  3.8443749824711278e-05 -2.9106512022059375e-03 7.6333673346427870e-06  3.9426704784257747e-05 -2.9845071041563719e-03 7.5844692253547751e-06  4.0350559464518663e-05 -3.0586686207691918e-03 7.5970161237092330e-06  4.1308182566896725e-05 -3.1330803438274243e-03 7.7230586071272964e-06  4.2262969921226678e-05 -3.2077899779739930e-03 7.7940726992892006e-06  4.3296588508179377e-05 -3.2826952391873895e-03 7.8063130264777288e-06  4.4243314937722666e-05 -3.3579030891952438e-03 7.8398783405508610e-06  4.5275353849773887e-05 -3.4333338075409497e-03 7.8536166891581211e-06  4.6278051186086395e-05 -3.5089944983521192e-03 7.8050999272117018e-06  4.7236742144742524e-05 -3.5849068374498691e-03 7.8208112086143163e-06  4.8217818341642757e-05 -3.6609650125886276e-03 7.9123685117610282e-06  4.9201723876634956e-05 -3.7371893070009534e-03 7.9378849981078873e-06  5.0223905767871050e-05 -3.8136114323738188e-03 7.9651296719225467e-06  5.1225760795263612e-05 -3.8901520502563165e-03 7.9627237874363160e-06  5.2226615884552231e-05 -3.9668230656759668e-03 7.9759753691031003e-06  5.3248290340822669e-05 -4.0436300338058204e-03 7.9620353344719437e-06  5.4250831874087841e-05 -4.1205489888751293e-03 7.9777309364835011e-06  5.5248048399453841e-05 -4.1975762434915140e-03 8.0053020261980022e-06  5.6246948025495532e-05 -4.2746673774080998e-03 8.0367104565692047e-06  5.7275761951804463e-05 -4.3518586869714781e-03 8.0491760792549519e-06  5.8278486846170894e-05 -4.4291056066461327e-03 8.0518804653767286e-06  5.9299137144279592e-05 -4.5064171442512676e-03 8.0573688498646200e-06  6.0315974839569298e-05 -4.5837787577519985e-03 8.0562278431598279e-06  6.1335843784039745e-05 -4.6611921461182839e-03 8.0539279976193351e-06  6.2346010442544035e-05 -4.7386415791202093e-03 8.0678062141886782e-06  6.3355531093705871e-05 -4.8161257823710838e-03 8.0783011637968288e-06  6.4377662458345013e-05 -4.8936374601282542e-03 8.0804220835956077e-06  6.5398316921128974e-05 -4.9711638118202011e-03 8.0789711787625892e-06  6.6415798819044298e-05 -5.0487071933127637e-03 8.0832764175336685e-06  6.7428374079428247e-05 -5.1262591799824597e-03 8.0891877026848533e-06  6.8445318912897161e-05 -5.2038197446548752e-03 8.0907774492288322e-06  6.9464331869601540e-05 -5.2813846248911398e-03 8.0912225381243393e-06  7.0482468498983593e-05 -5.3589473622605828e-03 8.0914365909502440e-06  7.1498404453861718e-05 -5.4365089891310449e-03 8.0906206367201567e-06  7.2516573073463068e-05 -5.5140684174646536e-03 8.0908446895006951e-06  7.3532740054837548e-05 -5.5916243461313830e-03 8.0908910116203614e-06  7.4751717027364529e-05 -5.6925956446218584e-03 -9.6009957629389756e-06  7.4847625883193454e-05 -5.6919560934435938e-03 2.9228004037710398e-06  7.4938762501451688e-05 -5.6912973753563360e-03 1.4436027085480967e-05  7.5026044073189674e-05 -5.6906254495716910e-03 2.5470505629109283e-05  7.5107643724556865e-05 -5.6899500106593328e-03 3.5953848334944989e-05  7.5182218920913068e-05 -5.6892768518981588e-03 4.5708752159512039e-05  7.5255001848264472e-05 -5.6886022466573058e-03 5.5245209389513700e-05  7.5324070006419565e-05 -5.6879271506931374e-03 6.4201480878732875e-05  7.5385865742443782e-05 -5.6872506740540439e-03 7.2438407906007623e-05  7.5446168446687109e-05 -5.6865731061231748e-03 8.0193029732721218e-05  7.5500656502433571e-05 -5.6858876793082682e-03 8.7464894427099647e-05  7.5550648566397602e-05 -5.6851980331815103e-03 9.3944194246689080e-05  7.5594473526038687e-05 -5.6845023404323812e-03 9.9811350229258311e-05  7.5634508679458040e-05 -5.6838081219507007e-03 1.0501429901640958e-04  7.5666998734247678e-05 -5.6831059807855907e-03 1.0944707547838543e-04  7.5695926669350872e-05 -5.6824011819647125e-03 1.1307595853445005e-04  7.5719229460224243e-05 -5.6816899774760387e-03 1.1622354533631232e-04  7.5739253970845291e-05 -5.6809732667287413e-03 1.1888049413969277e-04  7.5754685640460592e-05 -5.6802501220300653e-03 1.2086444207022510e-04  7.5763865293439547e-05 -5.6795226497237975e-03 1.2219033453952330e-04  7.5770490299078113e-05 -5.6787917132971278e-03 1.2330026263862316e-04  7.5771084910748914e-05 -5.6780547914527524e-03 1.2370511591057901e-04  7.5769172297292562e-05 -5.6773116492715332e-03 1.2376504502786879e-04  7.5763749028394227e-05 -5.6765629598106342e-03 1.2334158004794301e-04  7.5749159378840308e-05 -5.6758104358699503e-03 1.2211862837313426e-04  7.5726286809877863e-05 -5.6750526622140829e-03 1.2011908471380966e-04  7.5692904256005191e-05 -5.6742902860356199e-03 1.1706580401410301e-04  7.5652026033722324e-05 -5.6735235312222821e-03 1.1329113747152139e-04  7.5598097892361294e-05 -5.6727527931373133e-03 1.0841780828997425e-04  7.5526945941238732e-05 -5.6719793328405465e-03 1.0198094852791925e-04  7.5432670709173536e-05 -5.6712072695822265e-03 9.3391949428395672e-05  7.5300545564092885e-05 -5.6704369451624536e-03 8.1047789190288056e-05  7.5090467783479068e-05 -5.6696836400896497e-03 6.1131444287320673e-05  -2.6293369029534872e-07 5.8626517376745768e-07 -3.5551240407549574e-08  -4.8302229994060083e-07 1.8204094802711541e-07 -2.3055291850580962e-07  -5.6239568958260137e-07 -7.9177952159710690e-07 -7.3707580343495619e-07  -4.1950944641357753e-07 -4.8497137264141249e-06 -1.6041295648539529e-06  8.6572315326192574e-09 -9.4556527131573879e-06 -2.3982955683074281e-06  1.8072545714271347e-07 -1.4709962003438045e-05 -2.6488833573910444e-06  3.4585731738398239e-07 -2.5108478474866235e-05 -3.0168352642567959e-06  5.8258699518134942e-07 -3.6106844071660185e-05 -3.4339612471361074e-06  4.4231839334767034e-07 -4.8917367669127619e-05 -3.7887934993775377e-06  7.3351734491568472e-07 -6.3724313360670381e-05 -4.5386125786862429e-06  1.4309572641482332e-06 -8.1137709710437560e-05 -5.5324647518224492e-06  2.1116371317359585e-06 -9.9362121200580579e-05 -6.5468924085876515e-06  2.8963285533796133e-06 -1.1851714441364267e-04 -7.5117602766319672e-06  2.8239949558803717e-06 -1.4341228447264001e-04 -7.6367262231557821e-06  3.3410256709185259e-06 -1.6994604787241846e-04 -8.0804874319079895e-06  3.6225766974703878e-06 -1.9672090050753898e-04 -8.7700385814553107e-06  4.0500325466808115e-06 -2.2648843859532364e-04 -9.3895295772169341e-06  4.4215826475537236e-06 -2.5893316890161208e-04 -1.0391815692170212e-05  4.7975062823540309e-06 -2.9373223142475702e-04 -1.1482138932295736e-05  5.4079709026617507e-06 -3.3080127449174528e-04 -1.1744059085313514e-05  5.6474318043285430e-06 -3.6935446661300145e-04 -1.1977128794584233e-05  6.1239935608012107e-06 -4.0849253157516007e-04 -1.2408841097149005e-05  6.7001775262767399e-06 -4.4872786130828744e-04 -1.2715939620643361e-05  7.1780078361299346e-06 -4.9066724913480032e-04 -1.3218625427823893e-05  7.8395764424285556e-06 -5.3397044133811681e-04 -1.3802204736715118e-05  8.3125158258217886e-06 -5.7872748835102934e-04 -1.3849662576524585e-05  8.9195589380149281e-06 -6.2531913191272016e-04 -1.4770785162967792e-05  9.4291519668623684e-06 -6.7406634034261658e-04 -1.5180064741959268e-05  1.0059521975408825e-05 -7.2346956112753899e-04 -1.5628597817717496e-05  1.0935599399595113e-05 -7.7421680386648216e-04 -1.6165535441301823e-05  1.1661623523684130e-05 -8.2526807837031825e-04 -1.6427999849185319e-05  1.2300130552710236e-05 -8.7735910547359218e-04 -1.6485244908932573e-05  1.3046446885525467e-05 -9.3075416997138614e-04 -1.6946186010096713e-05  1.3688442786959698e-05 -9.8549836261020533e-04 -1.7354396153494842e-05  1.4320317344768284e-05 -1.0416843878533308e-03 -1.7362236217357558e-05  1.5117148857682001e-05 -1.0982948588010822e-03 -1.7898056725818867e-05  1.5970543434285051e-05 -1.1551900379454620e-03 -1.7954760274366088e-05  1.6808409088298971e-05 -1.2140942487141343e-03 -1.8268142044871859e-05  1.7508006252745154e-05 -1.2739151932246826e-03 -1.8698447194677491e-05  1.8345125238064539e-05 -1.3344569792539185e-03 -1.9028742927611630e-05  1.9083418225995106e-05 -1.3969355859844131e-03 -1.9408900231158520e-05  1.9868111633766938e-05 -1.4599349076712923e-03 -1.9609698531533490e-05  2.0688278625377794e-05 -1.5235884546815368e-03 -1.9905609214570924e-05  2.1517540562059552e-05 -1.5875394457687949e-03 -1.9983029337877236e-05  2.2361904264314345e-05 -1.6526571108348891e-03 -2.0072989216427390e-05  2.3211955535356116e-05 -1.7181471127715338e-03 -2.0310705080722127e-05  2.3971763477390434e-05 -1.7845970563438887e-03 -2.0474184264469508e-05  2.4838518694856623e-05 -1.8512960141486702e-03 -2.0610050624518538e-05  2.5638165210136317e-05 -1.9186076280587622e-03 -2.0903556333027094e-05  2.6631668908066361e-05 -1.9869012675358339e-03 -2.1108451296058953e-05  2.7507768099172017e-05 -2.0557293191648218e-03 -2.1266024709698141e-05  2.8345708819157232e-05 -2.1251094022650451e-03 -2.1550490804746175e-05  2.9239836805166561e-05 -2.1951145898753436e-03 -2.1750782549997384e-05  3.0156279020414525e-05 -2.2656791989439764e-03 -2.1772432051101809e-05  3.1032305721177043e-05 -2.3366848563626192e-03 -2.1975804626546420e-05  3.1959277633740173e-05 -2.4082562719069003e-03 -2.2134156494598356e-05  3.2946210105391987e-05 -2.4799588046743462e-03 -2.2250809550583225e-05  3.3836127846531226e-05 -2.5526190655675296e-03 -2.2380159519877226e-05  3.4714288048165310e-05 -2.6258841341033679e-03 -2.2489677993852830e-05  3.5612683069678013e-05 -2.6994036070835045e-03 -2.2662429705944869e-05  3.6547463451509145e-05 -2.7731105191143870e-03 -2.2766140732835659e-05  3.7521323216006092e-05 -2.8471296270499401e-03 -2.2857700882627040e-05  3.8523047807953096e-05 -2.9211669460629270e-03 -2.2950506177494348e-05  3.9497563308246990e-05 -2.9954850379633655e-03 -2.2985548939270631e-05  4.0484122319708142e-05 -3.0699713271844383e-03 -2.3091989286458677e-05  4.1437814794691634e-05 -3.1450912202467774e-03 -2.3146347596563520e-05  4.2430825772160034e-05 -3.2202696322711530e-03 -2.3205315696571460e-05  4.3412782539141495e-05 -3.2957691207745388e-03 -2.3283294813038989e-05  4.4374575116929238e-05 -3.3716626549874823e-03 -2.3369935603737462e-05  4.5374869515964042e-05 -3.4477634215625101e-03 -2.3424214295724945e-05  4.6304100917977502e-05 -3.5241774246844004e-03 -2.3523405354570437e-05  4.7326138877191899e-05 -3.6005648400490942e-03 -2.3565676583974795e-05  4.8318628597508335e-05 -3.6772168166469442e-03 -2.3595716777357256e-05  4.9313725698031507e-05 -3.7539070616959169e-03 -2.3646169462039433e-05  5.0293321961926061e-05 -3.8309031352922094e-03 -2.3707113606476506e-05  5.1284843451832499e-05 -3.9079421559494541e-03 -2.3751536298535566e-05  5.2294765223629082e-05 -3.9851335012767641e-03 -2.3762280181513438e-05  5.3290597071891514e-05 -4.0623745428285491e-03 -2.3774552964742409e-05  5.4291508657641553e-05 -4.1397787492773348e-03 -2.3801769915403107e-05  5.5293859816475167e-05 -4.2172608716227822e-03 -2.3820941010323112e-05  5.6304413597283749e-05 -4.2947511839485624e-03 -2.3836002316595023e-05  5.7310831664809955e-05 -4.3723115375969967e-03 -2.3857823734161284e-05  5.8321735514822150e-05 -4.4498892445737079e-03 -2.3876826280723279e-05  5.9347598531091442e-05 -4.5275310194318290e-03 -2.3872621042693005e-05  6.0370096748171492e-05 -4.6051986115740184e-03 -2.3876974309489211e-05  6.1376690911713153e-05 -4.6829301261329297e-03 -2.3879502037612762e-05  6.2386779314936458e-05 -4.7606854773241886e-03 -2.3887594583939742e-05  6.3404608268650771e-05 -4.8384296730357886e-03 -2.3887586186487734e-05  6.4428260181020528e-05 -4.9161763883483530e-03 -2.3884926110483424e-05  6.5440811843846269e-05 -4.9939565815917209e-03 -2.3888351596518541e-05  6.6459349124198838e-05 -5.0717055954089141e-03 -2.3879796231796374e-05  6.7484401637873208e-05 -5.1494241196836420e-03 -2.3879759257469473e-05  6.8507201594907746e-05 -5.2271365651183057e-03 -2.3876882538836092e-05  6.9528848961191957e-05 -5.3048492161813787e-03 -2.3870943490218695e-05  7.0552594214063464e-05 -5.3825399752072886e-03 -2.3867451091070029e-05  7.1571825340311336e-05 -5.4602240819277750e-03 -2.3860253748362832e-05  7.2592977953247380e-05 -5.5379091765617623e-03 -2.3857896175303016e-05  7.3617267540767843e-05 -5.6155662850710161e-03 -2.3859471015076338e-05  7.4032616671142819e-05 -5.6697245115239605e-03 -4.3751144239489203e-05  7.3799669176082293e-05 -5.6704713704657291e-03 -6.7890173483123201e-05  7.3667741496745892e-05 -5.6712409082525740e-03 -8.2231431653264557e-05  7.3570663808913858e-05 -5.6720132868483923e-03 -9.3177377437119813e-05  7.3498392788291699e-05 -5.6727852822004389e-03 -1.0185084551021262e-04  7.3444574528590416e-05 -5.6735552387377573e-03 -1.0897797509745162e-04  7.3402049992427068e-05 -5.6743213635247723e-03 -1.1505164683344520e-04  7.3375066757175506e-05 -5.6750827392146120e-03 -1.1980944825498014e-04  7.3357121316936961e-05 -5.6758403469280867e-03 -1.2360968100512065e-04  7.3350602358570284e-05 -5.6765931154087517e-03 -1.2657727860282704e-04  7.3351836686030595e-05 -5.6773400783035940e-03 -1.2877371645178442e-04  7.3358749507214225e-05 -5.6780827060557816e-03 -1.3039120330686049e-04  7.3372595112583346e-05 -5.6788200300927922e-03 -1.3130272864